
     Program PWSCF v.7.3 starts on 29Sep2025 at 14:15:27 

     This program is part of the open-source Quantum ESPRESSO suite
     for quantum simulation of materials; please cite
         "P. Giannozzi et al., J. Phys.:Condens. Matter 21 395502 (2009);
         "P. Giannozzi et al., J. Phys.:Condens. Matter 29 465901 (2017);
         "P. Giannozzi et al., J. Chem. Phys. 152 154105 (2020);
          URL http://www.quantum-espresso.org", 
     in publications or presentations arising from this work. More details at
     http://www.quantum-espresso.org/quote

     Parallel version (MPI), running on     2 processors

     MPI processes distributed on     1 nodes
     591 MiB available memory on the printing compute node when the environment starts

     Waiting for input...
     Reading input from standard input

     Current dimensions of program PWSCF are:
     Max number of different atomic species (ntypx) = 10
     Max number of k-points (npk) = ******
     Max angular momentum in pseudopotentials (lmaxx) =  4
     file Si.pbe-n-kjpaw_psl.1.0.0.UPF: wavefunction(s)  3S 3P renormalized
     Message from routine set_cutoff:
     ecutrho < 4*ecutwfc, are you sure?

     Atomic positions and unit cell read from directory:
     /u/51/gutierm2/unix/Software/YAIV/Tutorial/data/qe/tmp/Si.save/

     Message from routine setup:
     At least one non s.o. pseudo
     Message from routine setup:
     using ibrav=0 with symmetry is DISCOURAGED, use correct ibrav instead

     R & G space division:  proc/nbgrp/npool/nimage =       2
     Subspace diagonalization in iterative solution of the eigenvalue problem:
     a serial algorithm will be used


     Parallelization info
     --------------------
     sticks:   dense  smooth     PW     G-vecs:    dense   smooth      PW
     Min          36      36     30                  205      205     153
     Max          37      37     31                  206      206     154
     Sum          73      73     61                  411      411     307

     Using Slab Decomposition



     bravais-lattice index     =            0
     lattice parameter (alat)  =       7.3075  a.u.
     unit-cell volume          =     275.9279 (a.u.)^3
     number of atoms/cell      =            2
     number of atomic types    =            1
     number of electrons       =         8.00
     number of Kohn-Sham states=           16
     kinetic-energy cutoff     =      10.0000  Ry
     charge density cutoff     =      20.0000  Ry
     Exchange-correlation= SLA  PW   PBX  PBC
                           (   1   4   3   4   0   0   0)
     Non magnetic calculation with spin-orbit


     celldm(1)=   7.307523  celldm(2)=   0.000000  celldm(3)=   0.000000
     celldm(4)=   0.000000  celldm(5)=   0.000000  celldm(6)=   0.000000

     crystal axes: (cart. coord. in units of alat)
               a(1) = (   0.000000   0.707107   0.707107 )  
               a(2) = (   0.707107   0.000000   0.707107 )  
               a(3) = (   0.707107   0.707107   0.000000 )  

     reciprocal axes: (cart. coord. in units 2 pi/alat)
               b(1) = ( -0.707107  0.707107  0.707107 )  
               b(2) = (  0.707107 -0.707107  0.707107 )  
               b(3) = (  0.707107  0.707107 -0.707107 )  


     PseudoPot. # 1 for Si read from file:
     /u/51/gutierm2/unix/Software/YAIV/Tutorial/data/pseudos/Si.pbe-n-kjpaw_psl.1.0.0.UPF
     MD5 check sum: c444e9044dc23291313a1dbe9410abd1
     Pseudo is Projector augmented-wave + core cor, Zval =  4.0
     Generated using 'atomic' code by A. Dal Corso  v.7.3
     Shape of augmentation charge: PSQ
     Using radial grid of 1141 points,  6 beta functions with: 
                l(1) =   0
                l(2) =   0
                l(3) =   1
                l(4) =   1
                l(5) =   2
                l(6) =   2
     Q(r) pseudized with 0 coefficients 


     atomic species   valence    mass     pseudopotential
     Si                4.00    28.08550     Si( 1.00)

     48 Sym. Ops., with inversion, found (24 have fractional translation)


                                    s                        frac. trans.

      isym =  1     identity                                     

 cryst.   s( 1) = (     1          0          0      )
                  (     0          1          0      )
                  (     0          0          1      )

 cart.    s( 1) = (  1.0000000  0.0000000  0.0000000 )
                  (  0.0000000  1.0000000  0.0000000 )
                  (  0.0000000  0.0000000  1.0000000 )


      isym =  2     180 deg rotation - cart. axis [0,0,1]        

 cryst.   s( 2) = (     0          1         -1      )
                  (     1          0         -1      )
                  (     0          0         -1      )

 cart.    s( 2) = ( -1.0000000  0.0000000  0.0000000 )
                  (  0.0000000 -1.0000000  0.0000000 )
                  (  0.0000000  0.0000000  1.0000000 )


      isym =  3     180 deg rotation - cart. axis [0,1,0]        

 cryst.   s( 3) = (     0         -1          1      )
                  (     0         -1          0      )
                  (     1         -1          0      )

 cart.    s( 3) = ( -1.0000000  0.0000000  0.0000000 )
                  (  0.0000000  1.0000000  0.0000000 )
                  (  0.0000000  0.0000000 -1.0000000 )


      isym =  4     180 deg rotation - cart. axis [1,0,0]        

 cryst.   s( 4) = (    -1          0          0      )
                  (    -1          0          1      )
                  (    -1          1          0      )

 cart.    s( 4) = (  1.0000000  0.0000000  0.0000000 )
                  (  0.0000000 -1.0000000  0.0000000 )
                  (  0.0000000  0.0000000 -1.0000000 )


      isym =  5     180 deg rotation - cart. axis [1,1,0]        

 cryst.   s( 5) = (    -1          0          1      )    f =( -0.2500000 )
                  (     0         -1          1      )       ( -0.2500000 )
                  (     0          0          1      )       ( -0.2500000 )

 cart.    s( 5) = (  0.0000000  1.0000000  0.0000000 )    f =( -0.3535534 )
                  (  1.0000000  0.0000000  0.0000000 )       ( -0.3535534 )
                  (  0.0000000  0.0000000 -1.0000000 )       ( -0.3535534 )


      isym =  6     180 deg rotation - cart. axis [1,-1,0]       

 cryst.   s( 6) = (     0         -1          0      )    f =( -0.2500000 )
                  (    -1          0          0      )       ( -0.2500000 )
                  (     0          0         -1      )       ( -0.2500000 )

 cart.    s( 6) = (  0.0000000 -1.0000000  0.0000000 )    f =( -0.3535534 )
                  ( -1.0000000  0.0000000  0.0000000 )       ( -0.3535534 )
                  (  0.0000000  0.0000000 -1.0000000 )       ( -0.3535534 )


      isym =  7      90 deg rotation - cart. axis [0,0,-1]       

 cryst.   s( 7) = (     0          1          0      )    f =( -0.2500000 )
                  (     0          1         -1      )       ( -0.2500000 )
                  (    -1          1          0      )       ( -0.2500000 )

 cart.    s( 7) = (  0.0000000  1.0000000  0.0000000 )    f =( -0.3535534 )
                  ( -1.0000000  0.0000000  0.0000000 )       ( -0.3535534 )
                  (  0.0000000  0.0000000  1.0000000 )       ( -0.3535534 )


      isym =  8      90 deg rotation - cart. axis [0,0,1]        

 cryst.   s( 8) = (     1          0         -1      )    f =( -0.2500000 )
                  (     1          0          0      )       ( -0.2500000 )
                  (     1         -1          0      )       ( -0.2500000 )

 cart.    s( 8) = (  0.0000000 -1.0000000  0.0000000 )    f =( -0.3535534 )
                  (  1.0000000  0.0000000  0.0000000 )       ( -0.3535534 )
                  (  0.0000000  0.0000000  1.0000000 )       ( -0.3535534 )


      isym =  9     180 deg rotation - cart. axis [1,0,1]        

 cryst.   s( 9) = (    -1          1          0      )    f =( -0.2500000 )
                  (     0          1          0      )       ( -0.2500000 )
                  (     0          1         -1      )       ( -0.2500000 )

 cart.    s( 9) = (  0.0000000  0.0000000  1.0000000 )    f =( -0.3535534 )
                  (  0.0000000 -1.0000000  0.0000000 )       ( -0.3535534 )
                  (  1.0000000  0.0000000  0.0000000 )       ( -0.3535534 )


      isym = 10     180 deg rotation - cart. axis [-1,0,1]       

 cryst.   s(10) = (     0          0         -1      )    f =( -0.2500000 )
                  (     0         -1          0      )       ( -0.2500000 )
                  (    -1          0          0      )       ( -0.2500000 )

 cart.    s(10) = (  0.0000000  0.0000000 -1.0000000 )    f =( -0.3535534 )
                  (  0.0000000 -1.0000000  0.0000000 )       ( -0.3535534 )
                  ( -1.0000000  0.0000000  0.0000000 )       ( -0.3535534 )


      isym = 11      90 deg rotation - cart. axis [0,1,0]        

 cryst.   s(11) = (     0          0          1      )    f =( -0.2500000 )
                  (    -1          0          1      )       ( -0.2500000 )
                  (     0         -1          1      )       ( -0.2500000 )

 cart.    s(11) = (  0.0000000  0.0000000  1.0000000 )    f =( -0.3535534 )
                  (  0.0000000  1.0000000  0.0000000 )       ( -0.3535534 )
                  ( -1.0000000  0.0000000  0.0000000 )       ( -0.3535534 )


      isym = 12      90 deg rotation - cart. axis [0,-1,0]       

 cryst.   s(12) = (     1         -1          0      )    f =( -0.2500000 )
                  (     1          0         -1      )       ( -0.2500000 )
                  (     1          0          0      )       ( -0.2500000 )

 cart.    s(12) = (  0.0000000  0.0000000 -1.0000000 )    f =( -0.3535534 )
                  (  0.0000000  1.0000000  0.0000000 )       ( -0.3535534 )
                  (  1.0000000  0.0000000  0.0000000 )       ( -0.3535534 )


      isym = 13     180 deg rotation - cart. axis [0,1,1]        

 cryst.   s(13) = (     1          0          0      )    f =( -0.2500000 )
                  (     1         -1          0      )       ( -0.2500000 )
                  (     1          0         -1      )       ( -0.2500000 )

 cart.    s(13) = ( -1.0000000  0.0000000  0.0000000 )    f =( -0.3535534 )
                  (  0.0000000  0.0000000  1.0000000 )       ( -0.3535534 )
                  (  0.0000000  1.0000000  0.0000000 )       ( -0.3535534 )


      isym = 14     180 deg rotation - cart. axis [0,1,-1]       

 cryst.   s(14) = (    -1          0          0      )    f =( -0.2500000 )
                  (     0          0         -1      )       ( -0.2500000 )
                  (     0         -1          0      )       ( -0.2500000 )

 cart.    s(14) = ( -1.0000000  0.0000000  0.0000000 )    f =( -0.3535534 )
                  (  0.0000000  0.0000000 -1.0000000 )       ( -0.3535534 )
                  (  0.0000000 -1.0000000  0.0000000 )       ( -0.3535534 )


      isym = 15      90 deg rotation - cart. axis [-1,0,0]       

 cryst.   s(15) = (     0         -1          1      )    f =( -0.2500000 )
                  (     0          0          1      )       ( -0.2500000 )
                  (    -1          0          1      )       ( -0.2500000 )

 cart.    s(15) = (  1.0000000  0.0000000  0.0000000 )    f =( -0.3535534 )
                  (  0.0000000  0.0000000  1.0000000 )       ( -0.3535534 )
                  (  0.0000000 -1.0000000  0.0000000 )       ( -0.3535534 )


      isym = 16      90 deg rotation - cart. axis [1,0,0]        

 cryst.   s(16) = (     0          1         -1      )    f =( -0.2500000 )
                  (    -1          1          0      )       ( -0.2500000 )
                  (     0          1          0      )       ( -0.2500000 )

 cart.    s(16) = (  1.0000000  0.0000000  0.0000000 )    f =( -0.3535534 )
                  (  0.0000000  0.0000000 -1.0000000 )       ( -0.3535534 )
                  (  0.0000000  1.0000000  0.0000000 )       ( -0.3535534 )


      isym = 17     120 deg rotation - cart. axis [-1,-1,-1]     

 cryst.   s(17) = (     0          0          1      )
                  (     1          0          0      )
                  (     0          1          0      )

 cart.    s(17) = (  0.0000000  1.0000000  0.0000000 )
                  (  0.0000000  0.0000000  1.0000000 )
                  (  1.0000000  0.0000000  0.0000000 )


      isym = 18     120 deg rotation - cart. axis [-1,1,1]       

 cryst.   s(18) = (     1         -1          0      )
                  (     0         -1          1      )
                  (     0         -1          0      )

 cart.    s(18) = (  0.0000000 -1.0000000  0.0000000 )
                  (  0.0000000  0.0000000  1.0000000 )
                  ( -1.0000000  0.0000000  0.0000000 )


      isym = 19     120 deg rotation - cart. axis [1,1,-1]       

 cryst.   s(19) = (    -1          1          0      )
                  (    -1          0          0      )
                  (    -1          0          1      )

 cart.    s(19) = (  0.0000000  1.0000000  0.0000000 )
                  (  0.0000000  0.0000000 -1.0000000 )
                  ( -1.0000000  0.0000000  0.0000000 )


      isym = 20     120 deg rotation - cart. axis [1,-1,1]       

 cryst.   s(20) = (     0          0         -1      )
                  (     0          1         -1      )
                  (     1          0         -1      )

 cart.    s(20) = (  0.0000000 -1.0000000  0.0000000 )
                  (  0.0000000  0.0000000 -1.0000000 )
                  (  1.0000000  0.0000000  0.0000000 )


      isym = 21     120 deg rotation - cart. axis [1,1,1]        

 cryst.   s(21) = (     0          1          0      )
                  (     0          0          1      )
                  (     1          0          0      )

 cart.    s(21) = (  0.0000000  0.0000000  1.0000000 )
                  (  1.0000000  0.0000000  0.0000000 )
                  (  0.0000000  1.0000000  0.0000000 )


      isym = 22     120 deg rotation - cart. axis [-1,1,-1]      

 cryst.   s(22) = (    -1          0          1      )
                  (    -1          1          0      )
                  (    -1          0          0      )

 cart.    s(22) = (  0.0000000  0.0000000  1.0000000 )
                  ( -1.0000000  0.0000000  0.0000000 )
                  (  0.0000000 -1.0000000  0.0000000 )


      isym = 23     120 deg rotation - cart. axis [1,-1,-1]      

 cryst.   s(23) = (     1          0         -1      )
                  (     0          0         -1      )
                  (     0          1         -1      )

 cart.    s(23) = (  0.0000000  0.0000000 -1.0000000 )
                  ( -1.0000000  0.0000000  0.0000000 )
                  (  0.0000000  1.0000000  0.0000000 )


      isym = 24     120 deg rotation - cart. axis [-1,-1,1]      

 cryst.   s(24) = (     0         -1          0      )
                  (     1         -1          0      )
                  (     0         -1          1      )

 cart.    s(24) = (  0.0000000  0.0000000 -1.0000000 )
                  (  1.0000000  0.0000000  0.0000000 )
                  (  0.0000000 -1.0000000  0.0000000 )


      isym = 25     inversion                                    

 cryst.   s(25) = (    -1          0          0      )    f =( -0.2500000 )
                  (     0         -1          0      )       ( -0.2500000 )
                  (     0          0         -1      )       ( -0.2500000 )

 cart.    s(25) = ( -1.0000000  0.0000000  0.0000000 )    f =( -0.3535534 )
                  (  0.0000000 -1.0000000  0.0000000 )       ( -0.3535534 )
                  (  0.0000000  0.0000000 -1.0000000 )       ( -0.3535534 )


      isym = 26     inv. 180 deg rotation - cart. axis [0,0,1]   

 cryst.   s(26) = (     0         -1          1      )    f =( -0.2500000 )
                  (    -1          0          1      )       ( -0.2500000 )
                  (     0          0          1      )       ( -0.2500000 )

 cart.    s(26) = (  1.0000000  0.0000000  0.0000000 )    f =( -0.3535534 )
                  (  0.0000000  1.0000000  0.0000000 )       ( -0.3535534 )
                  (  0.0000000  0.0000000 -1.0000000 )       ( -0.3535534 )


      isym = 27     inv. 180 deg rotation - cart. axis [0,1,0]   

 cryst.   s(27) = (     0          1         -1      )    f =( -0.2500000 )
                  (     0          1          0      )       ( -0.2500000 )
                  (    -1          1          0      )       ( -0.2500000 )

 cart.    s(27) = (  1.0000000  0.0000000  0.0000000 )    f =( -0.3535534 )
                  (  0.0000000 -1.0000000  0.0000000 )       ( -0.3535534 )
                  (  0.0000000  0.0000000  1.0000000 )       ( -0.3535534 )


      isym = 28     inv. 180 deg rotation - cart. axis [1,0,0]   

 cryst.   s(28) = (     1          0          0      )    f =( -0.2500000 )
                  (     1          0         -1      )       ( -0.2500000 )
                  (     1         -1          0      )       ( -0.2500000 )

 cart.    s(28) = ( -1.0000000  0.0000000  0.0000000 )    f =( -0.3535534 )
                  (  0.0000000  1.0000000  0.0000000 )       ( -0.3535534 )
                  (  0.0000000  0.0000000  1.0000000 )       ( -0.3535534 )


      isym = 29     inv. 180 deg rotation - cart. axis [1,1,0]   

 cryst.   s(29) = (     1          0         -1      )
                  (     0          1         -1      )
                  (     0          0         -1      )

 cart.    s(29) = (  0.0000000 -1.0000000  0.0000000 )
                  ( -1.0000000  0.0000000  0.0000000 )
                  (  0.0000000  0.0000000  1.0000000 )


      isym = 30     inv. 180 deg rotation - cart. axis [1,-1,0]  

 cryst.   s(30) = (     0          1          0      )
                  (     1          0          0      )
                  (     0          0          1      )

 cart.    s(30) = (  0.0000000  1.0000000  0.0000000 )
                  (  1.0000000  0.0000000  0.0000000 )
                  (  0.0000000  0.0000000  1.0000000 )


      isym = 31     inv.  90 deg rotation - cart. axis [0,0,-1]  

 cryst.   s(31) = (     0         -1          0      )
                  (     0         -1          1      )
                  (     1         -1          0      )

 cart.    s(31) = (  0.0000000 -1.0000000  0.0000000 )
                  (  1.0000000  0.0000000  0.0000000 )
                  (  0.0000000  0.0000000 -1.0000000 )


      isym = 32     inv.  90 deg rotation - cart. axis [0,0,1]   

 cryst.   s(32) = (    -1          0          1      )
                  (    -1          0          0      )
                  (    -1          1          0      )

 cart.    s(32) = (  0.0000000  1.0000000  0.0000000 )
                  ( -1.0000000  0.0000000  0.0000000 )
                  (  0.0000000  0.0000000 -1.0000000 )


      isym = 33     inv. 180 deg rotation - cart. axis [1,0,1]   

 cryst.   s(33) = (     1         -1          0      )
                  (     0         -1          0      )
                  (     0         -1          1      )

 cart.    s(33) = (  0.0000000  0.0000000 -1.0000000 )
                  (  0.0000000  1.0000000  0.0000000 )
                  ( -1.0000000  0.0000000  0.0000000 )


      isym = 34     inv. 180 deg rotation - cart. axis [-1,0,1]  

 cryst.   s(34) = (     0          0          1      )
                  (     0          1          0      )
                  (     1          0          0      )

 cart.    s(34) = (  0.0000000  0.0000000  1.0000000 )
                  (  0.0000000  1.0000000  0.0000000 )
                  (  1.0000000  0.0000000  0.0000000 )


      isym = 35     inv.  90 deg rotation - cart. axis [0,1,0]   

 cryst.   s(35) = (     0          0         -1      )
                  (     1          0         -1      )
                  (     0          1         -1      )

 cart.    s(35) = (  0.0000000  0.0000000 -1.0000000 )
                  (  0.0000000 -1.0000000  0.0000000 )
                  (  1.0000000  0.0000000  0.0000000 )


      isym = 36     inv.  90 deg rotation - cart. axis [0,-1,0]  

 cryst.   s(36) = (    -1          1          0      )
                  (    -1          0          1      )
                  (    -1          0          0      )

 cart.    s(36) = (  0.0000000  0.0000000  1.0000000 )
                  (  0.0000000 -1.0000000  0.0000000 )
                  ( -1.0000000  0.0000000  0.0000000 )


      isym = 37     inv. 180 deg rotation - cart. axis [0,1,1]   

 cryst.   s(37) = (    -1          0          0      )
                  (    -1          1          0      )
                  (    -1          0          1      )

 cart.    s(37) = (  1.0000000  0.0000000  0.0000000 )
                  (  0.0000000  0.0000000 -1.0000000 )
                  (  0.0000000 -1.0000000  0.0000000 )


      isym = 38     inv. 180 deg rotation - cart. axis [0,1,-1]  

 cryst.   s(38) = (     1          0          0      )
                  (     0          0          1      )
                  (     0          1          0      )

 cart.    s(38) = (  1.0000000  0.0000000  0.0000000 )
                  (  0.0000000  0.0000000  1.0000000 )
                  (  0.0000000  1.0000000  0.0000000 )


      isym = 39     inv.  90 deg rotation - cart. axis [-1,0,0]  

 cryst.   s(39) = (     0          1         -1      )
                  (     0          0         -1      )
                  (     1          0         -1      )

 cart.    s(39) = ( -1.0000000  0.0000000  0.0000000 )
                  (  0.0000000  0.0000000 -1.0000000 )
                  (  0.0000000  1.0000000  0.0000000 )


      isym = 40     inv.  90 deg rotation - cart. axis [1,0,0]   

 cryst.   s(40) = (     0         -1          1      )
                  (     1         -1          0      )
                  (     0         -1          0      )

 cart.    s(40) = ( -1.0000000  0.0000000  0.0000000 )
                  (  0.0000000  0.0000000  1.0000000 )
                  (  0.0000000 -1.0000000  0.0000000 )


      isym = 41     inv. 120 deg rotation - cart. axis [-1,-1,-1]

 cryst.   s(41) = (     0          0         -1      )    f =( -0.2500000 )
                  (    -1          0          0      )       ( -0.2500000 )
                  (     0         -1          0      )       ( -0.2500000 )

 cart.    s(41) = (  0.0000000 -1.0000000  0.0000000 )    f =( -0.3535534 )
                  (  0.0000000  0.0000000 -1.0000000 )       ( -0.3535534 )
                  ( -1.0000000  0.0000000  0.0000000 )       ( -0.3535534 )


      isym = 42     inv. 120 deg rotation - cart. axis [-1,1,1]  

 cryst.   s(42) = (    -1          1          0      )    f =( -0.2500000 )
                  (     0          1         -1      )       ( -0.2500000 )
                  (     0          1          0      )       ( -0.2500000 )

 cart.    s(42) = (  0.0000000  1.0000000  0.0000000 )    f =( -0.3535534 )
                  (  0.0000000  0.0000000 -1.0000000 )       ( -0.3535534 )
                  (  1.0000000  0.0000000  0.0000000 )       ( -0.3535534 )


      isym = 43     inv. 120 deg rotation - cart. axis [1,1,-1]  

 cryst.   s(43) = (     1         -1          0      )    f =( -0.2500000 )
                  (     1          0          0      )       ( -0.2500000 )
                  (     1          0         -1      )       ( -0.2500000 )

 cart.    s(43) = (  0.0000000 -1.0000000  0.0000000 )    f =( -0.3535534 )
                  (  0.0000000  0.0000000  1.0000000 )       ( -0.3535534 )
                  (  1.0000000  0.0000000  0.0000000 )       ( -0.3535534 )


      isym = 44     inv. 120 deg rotation - cart. axis [1,-1,1]  

 cryst.   s(44) = (     0          0          1      )    f =( -0.2500000 )
                  (     0         -1          1      )       ( -0.2500000 )
                  (    -1          0          1      )       ( -0.2500000 )

 cart.    s(44) = (  0.0000000  1.0000000  0.0000000 )    f =( -0.3535534 )
                  (  0.0000000  0.0000000  1.0000000 )       ( -0.3535534 )
                  ( -1.0000000  0.0000000  0.0000000 )       ( -0.3535534 )


      isym = 45     inv. 120 deg rotation - cart. axis [1,1,1]   

 cryst.   s(45) = (     0         -1          0      )    f =( -0.2500000 )
                  (     0          0         -1      )       ( -0.2500000 )
                  (    -1          0          0      )       ( -0.2500000 )

 cart.    s(45) = (  0.0000000  0.0000000 -1.0000000 )    f =( -0.3535534 )
                  ( -1.0000000  0.0000000  0.0000000 )       ( -0.3535534 )
                  (  0.0000000 -1.0000000  0.0000000 )       ( -0.3535534 )


      isym = 46     inv. 120 deg rotation - cart. axis [-1,1,-1] 

 cryst.   s(46) = (     1          0         -1      )    f =( -0.2500000 )
                  (     1         -1          0      )       ( -0.2500000 )
                  (     1          0          0      )       ( -0.2500000 )

 cart.    s(46) = (  0.0000000  0.0000000 -1.0000000 )    f =( -0.3535534 )
                  (  1.0000000  0.0000000  0.0000000 )       ( -0.3535534 )
                  (  0.0000000  1.0000000  0.0000000 )       ( -0.3535534 )


      isym = 47     inv. 120 deg rotation - cart. axis [1,-1,-1] 

 cryst.   s(47) = (    -1          0          1      )    f =( -0.2500000 )
                  (     0          0          1      )       ( -0.2500000 )
                  (     0         -1          1      )       ( -0.2500000 )

 cart.    s(47) = (  0.0000000  0.0000000  1.0000000 )    f =( -0.3535534 )
                  (  1.0000000  0.0000000  0.0000000 )       ( -0.3535534 )
                  (  0.0000000 -1.0000000  0.0000000 )       ( -0.3535534 )


      isym = 48     inv. 120 deg rotation - cart. axis [-1,-1,1] 

 cryst.   s(48) = (     0          1          0      )    f =( -0.2500000 )
                  (    -1          1          0      )       ( -0.2500000 )
                  (     0          1         -1      )       ( -0.2500000 )

 cart.    s(48) = (  0.0000000  0.0000000  1.0000000 )    f =( -0.3535534 )
                  ( -1.0000000  0.0000000  0.0000000 )       ( -0.3535534 )
                  (  0.0000000  1.0000000  0.0000000 )       ( -0.3535534 )


   Cartesian axes

     site n.     atom                  positions (alat units)
         1        Si     tau(   1) = (   0.0000000   0.0000000   0.0000000  )
         2        Si     tau(   2) = (   0.3535534   0.3535534   0.3535534  )

   Crystallographic axes

     site n.     atom                  positions (cryst. coord.)
         1        Si     tau(   1) = (  0.0000000  0.0000000  0.0000000  )
         2        Si     tau(   2) = (  0.2500000  0.2500000  0.2500000  )

     number of k points=   142  Methfessel-Paxton smearing, width (Ry)=  0.0200
                       cart. coord. in units 2pi/alat
        k(    1) = (   0.0000000   0.7071068   0.0000000), wk =   0.0070423
        k(    2) = (   0.0176777   0.7071068   0.0000000), wk =   0.0070423
        k(    3) = (   0.0353553   0.7071068   0.0000000), wk =   0.0070423
        k(    4) = (   0.0530330   0.7071068   0.0000000), wk =   0.0070423
        k(    5) = (   0.0707107   0.7071068  -0.0000000), wk =   0.0070423
        k(    6) = (   0.0883883   0.7071068   0.0000000), wk =   0.0070423
        k(    7) = (   0.1060660   0.7071068   0.0000000), wk =   0.0070423
        k(    8) = (   0.1237437   0.7071068  -0.0000000), wk =   0.0070423
        k(    9) = (   0.1414214   0.7071068   0.0000000), wk =   0.0070423
        k(   10) = (   0.1590990   0.7071068   0.0000000), wk =   0.0070423
        k(   11) = (   0.1767767   0.7071068   0.0000000), wk =   0.0070423
        k(   12) = (   0.1944544   0.7071068   0.0000000), wk =   0.0070423
        k(   13) = (   0.2121320   0.7071068   0.0000000), wk =   0.0070423
        k(   14) = (   0.2298097   0.7071068   0.0000000), wk =   0.0070423
        k(   15) = (   0.2474874   0.7071068   0.0000000), wk =   0.0070423
        k(   16) = (   0.2651650   0.7071068   0.0000000), wk =   0.0070423
        k(   17) = (   0.2828427   0.7071068   0.0000000), wk =   0.0070423
        k(   18) = (   0.3005204   0.7071068   0.0000000), wk =   0.0070423
        k(   19) = (   0.3181981   0.7071068   0.0000000), wk =   0.0070423
        k(   20) = (   0.3358757   0.7071068   0.0000000), wk =   0.0070423
        k(   21) = (   0.3535534   0.7071068   0.0000000), wk =   0.0070423
        k(   22) = (   0.3535534   0.6894291   0.0176777), wk =   0.0070423
        k(   23) = (   0.3535534   0.6717514   0.0353553), wk =   0.0070423
        k(   24) = (   0.3535534   0.6540738   0.0530330), wk =   0.0070423
        k(   25) = (   0.3535534   0.6363961   0.0707107), wk =   0.0070423
        k(   26) = (   0.3535534   0.6187184   0.0883883), wk =   0.0070423
        k(   27) = (   0.3535534   0.6010408   0.1060660), wk =   0.0070423
        k(   28) = (   0.3535534   0.5833631   0.1237437), wk =   0.0070423
        k(   29) = (   0.3535534   0.5656854   0.1414214), wk =   0.0070423
        k(   30) = (   0.3535534   0.5480078   0.1590990), wk =   0.0070423
        k(   31) = (   0.3535534   0.5303301   0.1767767), wk =   0.0070423
        k(   32) = (   0.3535534   0.5126524   0.1944544), wk =   0.0070423
        k(   33) = (   0.3535534   0.4949747   0.2121320), wk =   0.0070423
        k(   34) = (   0.3535534   0.4772971   0.2298097), wk =   0.0070423
        k(   35) = (   0.3535534   0.4596194   0.2474874), wk =   0.0070423
        k(   36) = (   0.3535534   0.4419417   0.2651650), wk =   0.0070423
        k(   37) = (   0.3535534   0.4242641   0.2828427), wk =   0.0070423
        k(   38) = (   0.3535534   0.4065864   0.3005204), wk =   0.0070423
        k(   39) = (   0.3535534   0.3889087   0.3181981), wk =   0.0070423
        k(   40) = (   0.3535534   0.3712311   0.3358757), wk =   0.0070423
        k(   41) = (   0.3535534   0.3535534   0.3535534), wk =   0.0070423
        k(   42) = (   0.3358757   0.3358757   0.3358757), wk =   0.0070423
        k(   43) = (   0.3181981   0.3181981   0.3181981), wk =   0.0070423
        k(   44) = (   0.3005204   0.3005204   0.3005204), wk =   0.0070423
        k(   45) = (   0.2828427   0.2828427   0.2828427), wk =   0.0070423
        k(   46) = (   0.2651650   0.2651650   0.2651650), wk =   0.0070423
        k(   47) = (   0.2474874   0.2474874   0.2474874), wk =   0.0070423
        k(   48) = (   0.2298097   0.2298097   0.2298097), wk =   0.0070423
        k(   49) = (   0.2121320   0.2121320   0.2121320), wk =   0.0070423
        k(   50) = (   0.1944544   0.1944544   0.1944544), wk =   0.0070423
        k(   51) = (   0.1767767   0.1767767   0.1767767), wk =   0.0070423
        k(   52) = (   0.1590990   0.1590990   0.1590990), wk =   0.0070423
        k(   53) = (   0.1414214   0.1414214   0.1414214), wk =   0.0070423
        k(   54) = (   0.1237437   0.1237437   0.1237437), wk =   0.0070423
        k(   55) = (   0.1060660   0.1060660   0.1060660), wk =   0.0070423
        k(   56) = (   0.0883883   0.0883883   0.0883883), wk =   0.0070423
        k(   57) = (   0.0707107   0.0707107   0.0707107), wk =   0.0070423
        k(   58) = (   0.0530330   0.0530330   0.0530330), wk =   0.0070423
        k(   59) = (   0.0353553   0.0353553   0.0353553), wk =   0.0070423
        k(   60) = (   0.0176777   0.0176777   0.0176777), wk =   0.0070423
        k(   61) = (   0.0000000   0.0000000   0.0000000), wk =   0.0070423
        k(   62) = (   0.0000000   0.0353553   0.0000000), wk =   0.0070423
        k(   63) = (   0.0000000   0.0707107   0.0000000), wk =   0.0070423
        k(   64) = (   0.0000000   0.1060660   0.0000000), wk =   0.0070423
        k(   65) = (   0.0000000   0.1414214   0.0000000), wk =   0.0070423
        k(   66) = (   0.0000000   0.1767767   0.0000000), wk =   0.0070423
        k(   67) = (   0.0000000   0.2121320   0.0000000), wk =   0.0070423
        k(   68) = (   0.0000000   0.2474874   0.0000000), wk =   0.0070423
        k(   69) = (   0.0000000   0.2828427   0.0000000), wk =   0.0070423
        k(   70) = (   0.0000000   0.3181981   0.0000000), wk =   0.0070423
        k(   71) = (   0.0000000   0.3535534   0.0000000), wk =   0.0070423
        k(   72) = (   0.0000000   0.3889087   0.0000000), wk =   0.0070423
        k(   73) = (   0.0000000   0.4242641   0.0000000), wk =   0.0070423
        k(   74) = (   0.0000000   0.4596194   0.0000000), wk =   0.0070423
        k(   75) = (   0.0000000   0.4949747   0.0000000), wk =   0.0070423
        k(   76) = (   0.0000000   0.5303301   0.0000000), wk =   0.0070423
        k(   77) = (   0.0000000   0.5656854   0.0000000), wk =   0.0070423
        k(   78) = (   0.0000000   0.6010408   0.0000000), wk =   0.0070423
        k(   79) = (   0.0000000   0.6363961   0.0000000), wk =   0.0070423
        k(   80) = (   0.0000000   0.6717514   0.0000000), wk =   0.0070423
        k(   81) = (   0.0000000   0.7071068   0.0000000), wk =   0.0070423
        k(   82) = (   0.7071068   0.7071068   0.0000000), wk =   0.0070423
        k(   83) = (   0.6982679   0.6982679   0.0000000), wk =   0.0070423
        k(   84) = (   0.6894291   0.6894291   0.0000000), wk =   0.0070423
        k(   85) = (   0.6805903   0.6805903   0.0000000), wk =   0.0070423
        k(   86) = (   0.6717514   0.6717514   0.0000000), wk =   0.0070423
        k(   87) = (   0.6629126   0.6629126   0.0000000), wk =   0.0070423
        k(   88) = (   0.6540738   0.6540738   0.0000000), wk =   0.0070423
        k(   89) = (   0.6452349   0.6452349   0.0000000), wk =   0.0070423
        k(   90) = (   0.6363961   0.6363961   0.0000000), wk =   0.0070423
        k(   91) = (   0.6275573   0.6275573   0.0000000), wk =   0.0070423
        k(   92) = (   0.6187184   0.6187184   0.0000000), wk =   0.0070423
        k(   93) = (   0.6098796   0.6098796   0.0000000), wk =   0.0070423
        k(   94) = (   0.6010408   0.6010408   0.0000000), wk =   0.0070423
        k(   95) = (   0.5922019   0.5922019   0.0000000), wk =   0.0070423
        k(   96) = (   0.5833631   0.5833631   0.0000000), wk =   0.0070423
        k(   97) = (   0.5745243   0.5745243   0.0000000), wk =   0.0070423
        k(   98) = (   0.5656854   0.5656854   0.0000000), wk =   0.0070423
        k(   99) = (   0.5568466   0.5568466   0.0000000), wk =   0.0070423
        k(  100) = (   0.5480078   0.5480078   0.0000000), wk =   0.0070423
        k(  101) = (   0.5391689   0.5391689   0.0000000), wk =   0.0070423
        k(  102) = (   0.5303301   0.5303301   0.0000000), wk =   0.0070423
        k(  103) = (   0.5126524   0.5126524   0.0000000), wk =   0.0070423
        k(  104) = (   0.4949747   0.4949747   0.0000000), wk =   0.0070423
        k(  105) = (   0.4772971   0.4772971   0.0000000), wk =   0.0070423
        k(  106) = (   0.4596194   0.4596194   0.0000000), wk =   0.0070423
        k(  107) = (   0.4419417   0.4419417   0.0000000), wk =   0.0070423
        k(  108) = (   0.4242641   0.4242641   0.0000000), wk =   0.0070423
        k(  109) = (   0.4065864   0.4065864   0.0000000), wk =   0.0070423
        k(  110) = (   0.3889087   0.3889087   0.0000000), wk =   0.0070423
        k(  111) = (   0.3712311   0.3712311   0.0000000), wk =   0.0070423
        k(  112) = (   0.3535534   0.3535534   0.0000000), wk =   0.0070423
        k(  113) = (   0.3358757   0.3358757   0.0000000), wk =   0.0070423
        k(  114) = (   0.3181981   0.3181981   0.0000000), wk =   0.0070423
        k(  115) = (   0.3005204   0.3005204   0.0000000), wk =   0.0070423
        k(  116) = (   0.2828427   0.2828427   0.0000000), wk =   0.0070423
        k(  117) = (   0.2651650   0.2651650   0.0000000), wk =   0.0070423
        k(  118) = (   0.2474874   0.2474874   0.0000000), wk =   0.0070423
        k(  119) = (   0.2298097   0.2298097   0.0000000), wk =   0.0070423
        k(  120) = (   0.2121320   0.2121320   0.0000000), wk =   0.0070423
        k(  121) = (   0.1944544   0.1944544   0.0000000), wk =   0.0070423
        k(  122) = (   0.1767767   0.1767767   0.0000000), wk =   0.0070423
        k(  123) = (   0.1679379   0.1679379   0.0000000), wk =   0.0070423
        k(  124) = (   0.1590990   0.1590990   0.0000000), wk =   0.0070423
        k(  125) = (   0.1502602   0.1502602   0.0000000), wk =   0.0070423
        k(  126) = (   0.1414214   0.1414214   0.0000000), wk =   0.0070423
        k(  127) = (   0.1325825   0.1325825   0.0000000), wk =   0.0070423
        k(  128) = (   0.1237437   0.1237437   0.0000000), wk =   0.0070423
        k(  129) = (   0.1149049   0.1149049   0.0000000), wk =   0.0070423
        k(  130) = (   0.1060660   0.1060660   0.0000000), wk =   0.0070423
        k(  131) = (   0.0972272   0.0972272   0.0000000), wk =   0.0070423
        k(  132) = (   0.0883883   0.0883883   0.0000000), wk =   0.0070423
        k(  133) = (   0.0795495   0.0795495   0.0000000), wk =   0.0070423
        k(  134) = (   0.0707107   0.0707107   0.0000000), wk =   0.0070423
        k(  135) = (   0.0618718   0.0618718   0.0000000), wk =   0.0070423
        k(  136) = (   0.0530330   0.0530330   0.0000000), wk =   0.0070423
        k(  137) = (   0.0441942   0.0441942   0.0000000), wk =   0.0070423
        k(  138) = (   0.0353553   0.0353553   0.0000000), wk =   0.0070423
        k(  139) = (   0.0265165   0.0265165   0.0000000), wk =   0.0070423
        k(  140) = (   0.0176777   0.0176777   0.0000000), wk =   0.0070423
        k(  141) = (   0.0088388   0.0088388   0.0000000), wk =   0.0070423
        k(  142) = (   0.0000000   0.0000000   0.0000000), wk =   0.0070423

                       cryst. coord.
        k(    1) = (   0.5000000   0.0000000   0.5000000), wk =   0.0070423
        k(    2) = (   0.5000000   0.0125000   0.5125000), wk =   0.0070423
        k(    3) = (   0.5000000   0.0250000   0.5250000), wk =   0.0070423
        k(    4) = (   0.5000000   0.0375000   0.5375000), wk =   0.0070423
        k(    5) = (   0.5000000   0.0500000   0.5500000), wk =   0.0070423
        k(    6) = (   0.5000000   0.0625000   0.5625000), wk =   0.0070423
        k(    7) = (   0.5000000   0.0750000   0.5750000), wk =   0.0070423
        k(    8) = (   0.5000000   0.0875000   0.5875000), wk =   0.0070423
        k(    9) = (   0.5000000   0.1000000   0.6000000), wk =   0.0070423
        k(   10) = (   0.5000000   0.1125000   0.6125000), wk =   0.0070423
        k(   11) = (   0.5000000   0.1250000   0.6250000), wk =   0.0070423
        k(   12) = (   0.5000000   0.1375000   0.6375000), wk =   0.0070423
        k(   13) = (   0.5000000   0.1500000   0.6500000), wk =   0.0070423
        k(   14) = (   0.5000000   0.1625000   0.6625000), wk =   0.0070423
        k(   15) = (   0.5000000   0.1750000   0.6750000), wk =   0.0070423
        k(   16) = (   0.5000000   0.1875000   0.6875000), wk =   0.0070423
        k(   17) = (   0.5000000   0.2000000   0.7000000), wk =   0.0070423
        k(   18) = (   0.5000000   0.2125000   0.7125000), wk =   0.0070423
        k(   19) = (   0.5000000   0.2250000   0.7250000), wk =   0.0070423
        k(   20) = (   0.5000000   0.2375000   0.7375000), wk =   0.0070423
        k(   21) = (   0.5000000   0.2500000   0.7500000), wk =   0.0070423
        k(   22) = (   0.5000000   0.2625000   0.7375000), wk =   0.0070423
        k(   23) = (   0.5000000   0.2750000   0.7250000), wk =   0.0070423
        k(   24) = (   0.5000000   0.2875000   0.7125000), wk =   0.0070423
        k(   25) = (   0.5000000   0.3000000   0.7000000), wk =   0.0070423
        k(   26) = (   0.5000000   0.3125000   0.6875000), wk =   0.0070423
        k(   27) = (   0.5000000   0.3250000   0.6750000), wk =   0.0070423
        k(   28) = (   0.5000000   0.3375000   0.6625000), wk =   0.0070423
        k(   29) = (   0.5000000   0.3500000   0.6500000), wk =   0.0070423
        k(   30) = (   0.5000000   0.3625000   0.6375000), wk =   0.0070423
        k(   31) = (   0.5000000   0.3750000   0.6250000), wk =   0.0070423
        k(   32) = (   0.5000000   0.3875000   0.6125000), wk =   0.0070423
        k(   33) = (   0.5000000   0.4000000   0.6000000), wk =   0.0070423
        k(   34) = (   0.5000000   0.4125000   0.5875000), wk =   0.0070423
        k(   35) = (   0.5000000   0.4250000   0.5750000), wk =   0.0070423
        k(   36) = (   0.5000000   0.4375000   0.5625000), wk =   0.0070423
        k(   37) = (   0.5000000   0.4500000   0.5500000), wk =   0.0070423
        k(   38) = (   0.5000000   0.4625000   0.5375000), wk =   0.0070423
        k(   39) = (   0.5000000   0.4750000   0.5250000), wk =   0.0070423
        k(   40) = (   0.5000000   0.4875000   0.5125000), wk =   0.0070423
        k(   41) = (   0.5000000   0.5000000   0.5000000), wk =   0.0070423
        k(   42) = (   0.4750000   0.4750000   0.4750000), wk =   0.0070423
        k(   43) = (   0.4500000   0.4500000   0.4500000), wk =   0.0070423
        k(   44) = (   0.4250000   0.4250000   0.4250000), wk =   0.0070423
        k(   45) = (   0.4000000   0.4000000   0.4000000), wk =   0.0070423
        k(   46) = (   0.3750000   0.3750000   0.3750000), wk =   0.0070423
        k(   47) = (   0.3500000   0.3500000   0.3500000), wk =   0.0070423
        k(   48) = (   0.3250000   0.3250000   0.3250000), wk =   0.0070423
        k(   49) = (   0.3000000   0.3000000   0.3000000), wk =   0.0070423
        k(   50) = (   0.2750000   0.2750000   0.2750000), wk =   0.0070423
        k(   51) = (   0.2500000   0.2500000   0.2500000), wk =   0.0070423
        k(   52) = (   0.2250000   0.2250000   0.2250000), wk =   0.0070423
        k(   53) = (   0.2000000   0.2000000   0.2000000), wk =   0.0070423
        k(   54) = (   0.1750000   0.1750000   0.1750000), wk =   0.0070423
        k(   55) = (   0.1500000   0.1500000   0.1500000), wk =   0.0070423
        k(   56) = (   0.1250000   0.1250000   0.1250000), wk =   0.0070423
        k(   57) = (   0.1000000   0.1000000   0.1000000), wk =   0.0070423
        k(   58) = (   0.0750000   0.0750000   0.0750000), wk =   0.0070423
        k(   59) = (   0.0500000   0.0500000   0.0500000), wk =   0.0070423
        k(   60) = (   0.0250000   0.0250000   0.0250000), wk =   0.0070423
        k(   61) = (   0.0000000   0.0000000   0.0000000), wk =   0.0070423
        k(   62) = (   0.0250000   0.0000000   0.0250000), wk =   0.0070423
        k(   63) = (   0.0500000   0.0000000   0.0500000), wk =   0.0070423
        k(   64) = (   0.0750000   0.0000000   0.0750000), wk =   0.0070423
        k(   65) = (   0.1000000   0.0000000   0.1000000), wk =   0.0070423
        k(   66) = (   0.1250000   0.0000000   0.1250000), wk =   0.0070423
        k(   67) = (   0.1500000   0.0000000   0.1500000), wk =   0.0070423
        k(   68) = (   0.1750000   0.0000000   0.1750000), wk =   0.0070423
        k(   69) = (   0.2000000   0.0000000   0.2000000), wk =   0.0070423
        k(   70) = (   0.2250000   0.0000000   0.2250000), wk =   0.0070423
        k(   71) = (   0.2500000   0.0000000   0.2500000), wk =   0.0070423
        k(   72) = (   0.2750000   0.0000000   0.2750000), wk =   0.0070423
        k(   73) = (   0.3000000   0.0000000   0.3000000), wk =   0.0070423
        k(   74) = (   0.3250000   0.0000000   0.3250000), wk =   0.0070423
        k(   75) = (   0.3500000   0.0000000   0.3500000), wk =   0.0070423
        k(   76) = (   0.3750000   0.0000000   0.3750000), wk =   0.0070423
        k(   77) = (   0.4000000   0.0000000   0.4000000), wk =   0.0070423
        k(   78) = (   0.4250000   0.0000000   0.4250000), wk =   0.0070423
        k(   79) = (   0.4500000   0.0000000   0.4500000), wk =   0.0070423
        k(   80) = (   0.4750000   0.0000000   0.4750000), wk =   0.0070423
        k(   81) = (   0.5000000   0.0000000   0.5000000), wk =   0.0070423
        k(   82) = (   0.5000000   0.5000000   1.0000000), wk =   0.0070423
        k(   83) = (   0.4937500   0.4937500   0.9875000), wk =   0.0070423
        k(   84) = (   0.4875000   0.4875000   0.9750000), wk =   0.0070423
        k(   85) = (   0.4812500   0.4812500   0.9625000), wk =   0.0070423
        k(   86) = (   0.4750000   0.4750000   0.9500000), wk =   0.0070423
        k(   87) = (   0.4687500   0.4687500   0.9375000), wk =   0.0070423
        k(   88) = (   0.4625000   0.4625000   0.9250000), wk =   0.0070423
        k(   89) = (   0.4562500   0.4562500   0.9125000), wk =   0.0070423
        k(   90) = (   0.4500000   0.4500000   0.9000000), wk =   0.0070423
        k(   91) = (   0.4437500   0.4437500   0.8875000), wk =   0.0070423
        k(   92) = (   0.4375000   0.4375000   0.8750000), wk =   0.0070423
        k(   93) = (   0.4312500   0.4312500   0.8625000), wk =   0.0070423
        k(   94) = (   0.4250000   0.4250000   0.8500000), wk =   0.0070423
        k(   95) = (   0.4187500   0.4187500   0.8375000), wk =   0.0070423
        k(   96) = (   0.4125000   0.4125000   0.8250000), wk =   0.0070423
        k(   97) = (   0.4062500   0.4062500   0.8125000), wk =   0.0070423
        k(   98) = (   0.4000000   0.4000000   0.8000000), wk =   0.0070423
        k(   99) = (   0.3937500   0.3937500   0.7875000), wk =   0.0070423
        k(  100) = (   0.3875000   0.3875000   0.7750000), wk =   0.0070423
        k(  101) = (   0.3812500   0.3812500   0.7625000), wk =   0.0070423
        k(  102) = (   0.3750000   0.3750000   0.7500000), wk =   0.0070423
        k(  103) = (   0.3625000   0.3625000   0.7250000), wk =   0.0070423
        k(  104) = (   0.3500000   0.3500000   0.7000000), wk =   0.0070423
        k(  105) = (   0.3375000   0.3375000   0.6750000), wk =   0.0070423
        k(  106) = (   0.3250000   0.3250000   0.6500000), wk =   0.0070423
        k(  107) = (   0.3125000   0.3125000   0.6250000), wk =   0.0070423
        k(  108) = (   0.3000000   0.3000000   0.6000000), wk =   0.0070423
        k(  109) = (   0.2875000   0.2875000   0.5750000), wk =   0.0070423
        k(  110) = (   0.2750000   0.2750000   0.5500000), wk =   0.0070423
        k(  111) = (   0.2625000   0.2625000   0.5250000), wk =   0.0070423
        k(  112) = (   0.2500000   0.2500000   0.5000000), wk =   0.0070423
        k(  113) = (   0.2375000   0.2375000   0.4750000), wk =   0.0070423
        k(  114) = (   0.2250000   0.2250000   0.4500000), wk =   0.0070423
        k(  115) = (   0.2125000   0.2125000   0.4250000), wk =   0.0070423
        k(  116) = (   0.2000000   0.2000000   0.4000000), wk =   0.0070423
        k(  117) = (   0.1875000   0.1875000   0.3750000), wk =   0.0070423
        k(  118) = (   0.1750000   0.1750000   0.3500000), wk =   0.0070423
        k(  119) = (   0.1625000   0.1625000   0.3250000), wk =   0.0070423
        k(  120) = (   0.1500000   0.1500000   0.3000000), wk =   0.0070423
        k(  121) = (   0.1375000   0.1375000   0.2750000), wk =   0.0070423
        k(  122) = (   0.1250000   0.1250000   0.2500000), wk =   0.0070423
        k(  123) = (   0.1187500   0.1187500   0.2375000), wk =   0.0070423
        k(  124) = (   0.1125000   0.1125000   0.2250000), wk =   0.0070423
        k(  125) = (   0.1062500   0.1062500   0.2125000), wk =   0.0070423
        k(  126) = (   0.1000000   0.1000000   0.2000000), wk =   0.0070423
        k(  127) = (   0.0937500   0.0937500   0.1875000), wk =   0.0070423
        k(  128) = (   0.0875000   0.0875000   0.1750000), wk =   0.0070423
        k(  129) = (   0.0812500   0.0812500   0.1625000), wk =   0.0070423
        k(  130) = (   0.0750000   0.0750000   0.1500000), wk =   0.0070423
        k(  131) = (   0.0687500   0.0687500   0.1375000), wk =   0.0070423
        k(  132) = (   0.0625000   0.0625000   0.1250000), wk =   0.0070423
        k(  133) = (   0.0562500   0.0562500   0.1125000), wk =   0.0070423
        k(  134) = (   0.0500000   0.0500000   0.1000000), wk =   0.0070423
        k(  135) = (   0.0437500   0.0437500   0.0875000), wk =   0.0070423
        k(  136) = (   0.0375000   0.0375000   0.0750000), wk =   0.0070423
        k(  137) = (   0.0312500   0.0312500   0.0625000), wk =   0.0070423
        k(  138) = (   0.0250000   0.0250000   0.0500000), wk =   0.0070423
        k(  139) = (   0.0187500   0.0187500   0.0375000), wk =   0.0070423
        k(  140) = (   0.0125000   0.0125000   0.0250000), wk =   0.0070423
        k(  141) = (   0.0062500   0.0062500   0.0125000), wk =   0.0070423
        k(  142) = (   0.0000000   0.0000000   0.0000000), wk =   0.0070423

     Dense  grid:      411 G-vectors     FFT dimensions: (  12,  12,  12)

     Dynamical RAM for                 wfc:       0.04 MB

     Dynamical RAM for     wfc (w. buffer):       0.04 MB

     Dynamical RAM for           str. fact:       0.00 MB

     Dynamical RAM for           local pot:       0.00 MB

     Dynamical RAM for          nlocal pot:       0.04 MB

     Dynamical RAM for                qrad:       0.36 MB

     Dynamical RAM for          rho,v,vnew:       0.12 MB

     Dynamical RAM for           G-vectors:       0.01 MB

     Dynamical RAM for          h,s,v(r/c):       0.05 MB

     Dynamical RAM for          <psi|beta>:       0.02 MB

     Dynamical RAM for                 psi:       0.07 MB

     Dynamical RAM for                hpsi:       0.07 MB

     Dynamical RAM for                spsi:       0.07 MB

     Dynamical RAM for      wfcinit/wfcrot:       0.06 MB

     Dynamical RAM for           addusdens:       0.59 MB

     Estimated static dynamical RAM per process >       0.63 MB

     Estimated max dynamical RAM per process >       1.22 MB

     Estimated total dynamical RAM >       2.43 MB

     Check: negative core charge=   -0.005178

     The potential is recalculated from file :
     /u/51/gutierm2/unix/Software/YAIV/Tutorial/data/qe/tmp/Si.save/charge-density


     negative rho (up, down):  9.218E-04 0.000E+00
     Starting wfcs are   16 randomized atomic wfcs
     Checking if some PAW data can be deallocated... 

     Band Structure Calculation
     Davidson diagonalization with overlap

     Computing kpt #:     1  of   142
     total cpu time spent up to now is        0.3 secs

     Computing kpt #:     2  of   142
     total cpu time spent up to now is        0.3 secs

     Computing kpt #:     3  of   142
     total cpu time spent up to now is        0.3 secs

     Computing kpt #:     4  of   142
     total cpu time spent up to now is        0.3 secs

     Computing kpt #:     5  of   142
     total cpu time spent up to now is        0.3 secs

     Computing kpt #:     6  of   142
     total cpu time spent up to now is        0.3 secs

     Computing kpt #:     7  of   142
     total cpu time spent up to now is        0.3 secs

     Computing kpt #:     8  of   142
     total cpu time spent up to now is        0.4 secs

     Computing kpt #:     9  of   142
     total cpu time spent up to now is        0.4 secs

     Computing kpt #:    10  of   142
     total cpu time spent up to now is        0.4 secs

     Computing kpt #:    11  of   142
     total cpu time spent up to now is        0.4 secs

     Computing kpt #:    12  of   142
     total cpu time spent up to now is        0.4 secs

     Computing kpt #:    13  of   142
     total cpu time spent up to now is        0.4 secs

     Computing kpt #:    14  of   142
     total cpu time spent up to now is        0.4 secs

     Computing kpt #:    15  of   142
     total cpu time spent up to now is        0.4 secs

     Computing kpt #:    16  of   142
     total cpu time spent up to now is        0.5 secs

     Computing kpt #:    17  of   142
     total cpu time spent up to now is        0.5 secs

     Computing kpt #:    18  of   142
     total cpu time spent up to now is        0.5 secs

     Computing kpt #:    19  of   142
     total cpu time spent up to now is        0.5 secs

     Computing kpt #:    20  of   142
     total cpu time spent up to now is        0.5 secs

     Computing kpt #:    21  of   142
     total cpu time spent up to now is        0.5 secs

     Computing kpt #:    22  of   142
     total cpu time spent up to now is        0.5 secs

     Computing kpt #:    23  of   142
     total cpu time spent up to now is        0.5 secs

     Computing kpt #:    24  of   142
     total cpu time spent up to now is        0.5 secs

     Computing kpt #:    25  of   142
     total cpu time spent up to now is        0.6 secs

     Computing kpt #:    26  of   142
     total cpu time spent up to now is        0.6 secs

     Computing kpt #:    27  of   142
     total cpu time spent up to now is        0.6 secs

     Computing kpt #:    28  of   142
     total cpu time spent up to now is        0.6 secs

     Computing kpt #:    29  of   142
     total cpu time spent up to now is        0.6 secs

     Computing kpt #:    30  of   142
     total cpu time spent up to now is        0.6 secs

     Computing kpt #:    31  of   142
     total cpu time spent up to now is        0.6 secs

     Computing kpt #:    32  of   142
     total cpu time spent up to now is        0.7 secs

     Computing kpt #:    33  of   142
     total cpu time spent up to now is        0.7 secs

     Computing kpt #:    34  of   142
     total cpu time spent up to now is        0.7 secs

     Computing kpt #:    35  of   142
     total cpu time spent up to now is        0.7 secs

     Computing kpt #:    36  of   142
     total cpu time spent up to now is        0.7 secs

     Computing kpt #:    37  of   142
     total cpu time spent up to now is        0.7 secs

     Computing kpt #:    38  of   142
     total cpu time spent up to now is        0.8 secs

     Computing kpt #:    39  of   142
     total cpu time spent up to now is        0.8 secs

     Computing kpt #:    40  of   142
     total cpu time spent up to now is        0.8 secs

     Computing kpt #:    41  of   142
     total cpu time spent up to now is        0.8 secs

     Computing kpt #:    42  of   142
     total cpu time spent up to now is        0.8 secs

     Computing kpt #:    43  of   142
     total cpu time spent up to now is        0.8 secs

     Computing kpt #:    44  of   142
     total cpu time spent up to now is        0.8 secs

     Computing kpt #:    45  of   142
     total cpu time spent up to now is        0.8 secs

     Computing kpt #:    46  of   142
     total cpu time spent up to now is        0.9 secs

     Computing kpt #:    47  of   142
     total cpu time spent up to now is        0.9 secs

     Computing kpt #:    48  of   142
     total cpu time spent up to now is        0.9 secs

     Computing kpt #:    49  of   142
     total cpu time spent up to now is        0.9 secs

     Computing kpt #:    50  of   142
     total cpu time spent up to now is        0.9 secs

     Computing kpt #:    51  of   142
     total cpu time spent up to now is        1.0 secs

     Computing kpt #:    52  of   142
     total cpu time spent up to now is        1.0 secs

     Computing kpt #:    53  of   142
     total cpu time spent up to now is        1.0 secs

     Computing kpt #:    54  of   142
     total cpu time spent up to now is        1.0 secs

     Computing kpt #:    55  of   142
     total cpu time spent up to now is        1.0 secs

     Computing kpt #:    56  of   142
     total cpu time spent up to now is        1.0 secs

     Computing kpt #:    57  of   142
     total cpu time spent up to now is        1.0 secs

     Computing kpt #:    58  of   142
     total cpu time spent up to now is        1.0 secs

     Computing kpt #:    59  of   142
     total cpu time spent up to now is        1.1 secs

     Computing kpt #:    60  of   142
     total cpu time spent up to now is        1.1 secs

     Computing kpt #:    61  of   142
     total cpu time spent up to now is        1.1 secs

     Computing kpt #:    62  of   142
     total cpu time spent up to now is        1.1 secs

     Computing kpt #:    63  of   142
     total cpu time spent up to now is        1.1 secs

     Computing kpt #:    64  of   142
     total cpu time spent up to now is        1.1 secs

     Computing kpt #:    65  of   142
     total cpu time spent up to now is        1.1 secs

     Computing kpt #:    66  of   142
     total cpu time spent up to now is        1.1 secs

     Computing kpt #:    67  of   142
     total cpu time spent up to now is        1.2 secs

     Computing kpt #:    68  of   142
     total cpu time spent up to now is        1.2 secs

     Computing kpt #:    69  of   142
     total cpu time spent up to now is        1.2 secs

     Computing kpt #:    70  of   142
     total cpu time spent up to now is        1.2 secs

     Computing kpt #:    71  of   142
     total cpu time spent up to now is        1.2 secs

     Computing kpt #:    72  of   142
     total cpu time spent up to now is        1.2 secs

     Computing kpt #:    73  of   142
     total cpu time spent up to now is        1.2 secs

     Computing kpt #:    74  of   142
     total cpu time spent up to now is        1.2 secs

     Computing kpt #:    75  of   142
     total cpu time spent up to now is        1.3 secs

     Computing kpt #:    76  of   142
     total cpu time spent up to now is        1.3 secs

     Computing kpt #:    77  of   142
     total cpu time spent up to now is        1.3 secs

     Computing kpt #:    78  of   142
     total cpu time spent up to now is        1.3 secs

     Computing kpt #:    79  of   142
     total cpu time spent up to now is        1.3 secs

     Computing kpt #:    80  of   142
     total cpu time spent up to now is        1.3 secs

     Computing kpt #:    81  of   142
     total cpu time spent up to now is        1.3 secs

     Computing kpt #:    82  of   142
     total cpu time spent up to now is        1.3 secs

     Computing kpt #:    83  of   142
     total cpu time spent up to now is        1.4 secs

     Computing kpt #:    84  of   142
     total cpu time spent up to now is        1.4 secs

     Computing kpt #:    85  of   142
     total cpu time spent up to now is        1.4 secs

     Computing kpt #:    86  of   142
     total cpu time spent up to now is        1.4 secs

     Computing kpt #:    87  of   142
     total cpu time spent up to now is        1.4 secs

     Computing kpt #:    88  of   142
     total cpu time spent up to now is        1.4 secs

     Computing kpt #:    89  of   142
     total cpu time spent up to now is        1.4 secs

     Computing kpt #:    90  of   142
     total cpu time spent up to now is        1.4 secs

     Computing kpt #:    91  of   142
     total cpu time spent up to now is        1.5 secs

     Computing kpt #:    92  of   142
     total cpu time spent up to now is        1.5 secs

     Computing kpt #:    93  of   142
     total cpu time spent up to now is        1.5 secs

     Computing kpt #:    94  of   142
     total cpu time spent up to now is        1.5 secs

     Computing kpt #:    95  of   142
     total cpu time spent up to now is        1.5 secs

     Computing kpt #:    96  of   142
     total cpu time spent up to now is        1.5 secs

     Computing kpt #:    97  of   142
     total cpu time spent up to now is        1.5 secs

     Computing kpt #:    98  of   142
     total cpu time spent up to now is        1.6 secs

     Computing kpt #:    99  of   142
     total cpu time spent up to now is        1.6 secs

     Computing kpt #:   100  of   142
     total cpu time spent up to now is        1.6 secs

     Computing kpt #:   101  of   142
     total cpu time spent up to now is        1.6 secs

     Computing kpt #:   102  of   142
     total cpu time spent up to now is        1.6 secs

     Computing kpt #:   103  of   142
     total cpu time spent up to now is        1.7 secs

     Computing kpt #:   104  of   142
     total cpu time spent up to now is        1.7 secs

     Computing kpt #:   105  of   142
     total cpu time spent up to now is        1.7 secs

     Computing kpt #:   106  of   142
     total cpu time spent up to now is        1.7 secs

     Computing kpt #:   107  of   142
     total cpu time spent up to now is        1.7 secs

     Computing kpt #:   108  of   142
     total cpu time spent up to now is        1.7 secs

     Computing kpt #:   109  of   142
     total cpu time spent up to now is        1.8 secs

     Computing kpt #:   110  of   142
     total cpu time spent up to now is        1.8 secs

     Computing kpt #:   111  of   142
     total cpu time spent up to now is        1.8 secs

     Computing kpt #:   112  of   142
     total cpu time spent up to now is        1.8 secs

     Computing kpt #:   113  of   142
     total cpu time spent up to now is        1.8 secs

     Computing kpt #:   114  of   142
     total cpu time spent up to now is        1.8 secs

     Computing kpt #:   115  of   142
     total cpu time spent up to now is        1.8 secs

     Computing kpt #:   116  of   142
     total cpu time spent up to now is        1.8 secs

     Computing kpt #:   117  of   142
     total cpu time spent up to now is        1.9 secs

     Computing kpt #:   118  of   142
     total cpu time spent up to now is        1.9 secs

     Computing kpt #:   119  of   142
     total cpu time spent up to now is        1.9 secs

     Computing kpt #:   120  of   142
     total cpu time spent up to now is        1.9 secs

     Computing kpt #:   121  of   142
     total cpu time spent up to now is        1.9 secs

     Computing kpt #:   122  of   142
     total cpu time spent up to now is        1.9 secs

     Computing kpt #:   123  of   142
     total cpu time spent up to now is        1.9 secs

     Computing kpt #:   124  of   142
     total cpu time spent up to now is        2.0 secs

     Computing kpt #:   125  of   142
     total cpu time spent up to now is        2.0 secs

     Computing kpt #:   126  of   142
     total cpu time spent up to now is        2.0 secs

     Computing kpt #:   127  of   142
     total cpu time spent up to now is        2.0 secs

     Computing kpt #:   128  of   142
     total cpu time spent up to now is        2.0 secs

     Computing kpt #:   129  of   142
     total cpu time spent up to now is        2.0 secs

     Computing kpt #:   130  of   142
     total cpu time spent up to now is        2.0 secs

     Computing kpt #:   131  of   142
     total cpu time spent up to now is        2.1 secs

     Computing kpt #:   132  of   142
     total cpu time spent up to now is        2.1 secs

     Computing kpt #:   133  of   142
     total cpu time spent up to now is        2.1 secs

     Computing kpt #:   134  of   142
     total cpu time spent up to now is        2.1 secs

     Computing kpt #:   135  of   142
     total cpu time spent up to now is        2.1 secs

     Computing kpt #:   136  of   142
     total cpu time spent up to now is        2.1 secs

     Computing kpt #:   137  of   142
     total cpu time spent up to now is        2.1 secs

     Computing kpt #:   138  of   142
     total cpu time spent up to now is        2.1 secs

     Computing kpt #:   139  of   142
     total cpu time spent up to now is        2.2 secs

     Computing kpt #:   140  of   142
     total cpu time spent up to now is        2.2 secs

     Computing kpt #:   141  of   142
     total cpu time spent up to now is        2.2 secs

     Computing kpt #:   142  of   142
     total cpu time spent up to now is        2.2 secs

     ethr =  1.25E-07,  avg # of iterations = 17.6

     total cpu time spent up to now is        2.2 secs

     End of band structure calculation

          k = 0.0000 0.7071 0.0000 (   150 PWs)   bands (ev):

    -1.5082  -1.5082  -1.5082  -1.5082   3.3006   3.3006   3.3006   3.3006
     6.5150   6.5150   6.5150   6.5150  16.2965  16.2965  16.2965  16.2965

          k = 0.0177 0.7071 0.0000 (   150 PWs)   bands (ev):

    -1.5071  -1.5071  -1.5071  -1.5071   3.2905   3.2905   3.2905   3.2905
     6.5320   6.5320   6.5320   6.5320  16.2723  16.2723  16.2723  16.2723

          k = 0.0354 0.7071 0.0000 (   150 PWs)   bands (ev):

    -1.5038  -1.5038  -1.5038  -1.5038   3.2607   3.2607   3.2607   3.2607
     6.5824   6.5824   6.5824   6.5824  16.1949  16.1949  16.1949  16.1949

          k = 0.0530 0.7071 0.0000 (   150 PWs)   bands (ev):

    -1.4984  -1.4984  -1.4984  -1.4984   3.2133   3.2133   3.2133   3.2133
     6.6642   6.6642   6.6642   6.6642  16.0552  16.0552  16.0552  16.0552

          k = 0.0707 0.7071-0.0000 (   150 PWs)   bands (ev):

    -1.4909  -1.4909  -1.4909  -1.4909   3.1512   3.1512   3.1512   3.1512
     6.7745   6.7745   6.7745   6.7745  15.8515  15.8515  15.8515  15.8515

          k = 0.0884 0.7071 0.0000 (   148 PWs)   bands (ev):

    -1.4811  -1.4811  -1.4811  -1.4811   3.0777   3.0777   3.0777   3.0777
     6.9108   6.9108   6.9108   6.9108  15.5961  15.5961  15.5961  15.5961

          k = 0.1061 0.7071 0.0000 (   148 PWs)   bands (ev):

    -1.4700  -1.4700  -1.4700  -1.4700   2.9960   2.9960   2.9960   2.9960
     7.0687   7.0687   7.0687   7.0687  15.3053  15.3053  15.3053  15.3053

          k = 0.1237 0.7071-0.0000 (   144 PWs)   bands (ev):

    -1.4562  -1.4562  -1.4562  -1.4562   2.9098   2.9098   2.9098   2.9098
     7.2510   7.2510   7.2510   7.2510  15.0041  15.0041  15.0041  15.0041

          k = 0.1414 0.7071 0.0000 (   144 PWs)   bands (ev):

    -1.4422  -1.4422  -1.4422  -1.4422   2.8206   2.8206   2.8206   2.8206
     7.4448   7.4448   7.4448   7.4448  14.6792  14.6792  14.6792  14.6792

          k = 0.1591 0.7071 0.0000 (   144 PWs)   bands (ev):

    -1.4273  -1.4273  -1.4273  -1.4273   2.7312   2.7312   2.7312   2.7312
     7.6530   7.6530   7.6530   7.6530  14.3474  14.3474  14.3474  14.3474

          k = 0.1768 0.7071 0.0000 (   142 PWs)   bands (ev):

    -1.4109  -1.4109  -1.4109  -1.4109   2.6441   2.6441   2.6441   2.6441
     7.8740   7.8740   7.8740   7.8740  14.0159  14.0159  14.0159  14.0159

          k = 0.1945 0.7071 0.0000 (   146 PWs)   bands (ev):

    -1.3971  -1.3971  -1.3971  -1.3971   2.5597   2.5597   2.5597   2.5597
     8.1034   8.1034   8.1034   8.1034  13.6710  13.6710  13.6710  13.6710

          k = 0.2121 0.7071 0.0000 (   146 PWs)   bands (ev):

    -1.3814  -1.3814  -1.3814  -1.3814   2.4808   2.4808   2.4808   2.4808
     8.3447   8.3447   8.3447   8.3447  13.3362  13.3362  13.3362  13.3362

          k = 0.2298 0.7071 0.0000 (   150 PWs)   bands (ev):

    -1.3684  -1.3684  -1.3684  -1.3684   2.4081   2.4081   2.4081   2.4081
     8.5929   8.5929   8.5929   8.5929  12.9911  12.9911  12.9911  12.9911

          k = 0.2475 0.7071 0.0000 (   150 PWs)   bands (ev):

    -1.3542  -1.3542  -1.3542  -1.3542   2.3430   2.3430   2.3430   2.3430
     8.8489   8.8489   8.8489   8.8489  12.6638  12.6638  12.6638  12.6638

          k = 0.2652 0.7071 0.0000 (   150 PWs)   bands (ev):

    -1.3413  -1.3413  -1.3413  -1.3413   2.2863   2.2863   2.2863   2.2863
     9.1096   9.1096   9.1096   9.1096  12.3429  12.3429  12.3429  12.3429

          k = 0.2828 0.7071 0.0000 (   150 PWs)   bands (ev):

    -1.3301  -1.3301  -1.3301  -1.3301   2.2387   2.2387   2.2387   2.2387
     9.3721   9.3721   9.3721   9.3721  12.0313  12.0313  12.0313  12.0313

          k = 0.3005 0.7071 0.0000 (   150 PWs)   bands (ev):

    -1.3209  -1.3209  -1.3209  -1.3209   2.2010   2.2010   2.2010   2.2010
     9.6311   9.6311   9.6311   9.6311  11.7341  11.7341  11.7341  11.7341

          k = 0.3182 0.7071 0.0000 (   144 PWs)   bands (ev):

    -1.3124  -1.3124  -1.3124  -1.3124   2.1743   2.1743   2.1743   2.1743
     9.8833   9.8833   9.8833   9.8833  11.4743  11.4743  11.4743  11.4743

          k = 0.3359 0.7071 0.0000 (   144 PWs)   bands (ev):

    -1.3083  -1.3083  -1.3083  -1.3083   2.1577   2.1577   2.1577   2.1577
    10.0824  10.0824  10.0824  10.0824  11.2588  11.2588  11.2588  11.2588

          k = 0.3536 0.7071 0.0000 (   144 PWs)   bands (ev):

    -1.3069  -1.3069  -1.3069  -1.3069   2.1522   2.1522   2.1522   2.1522
    10.1677  10.1677  10.1677  10.1677  11.1681  11.1681  11.1681  11.1681

          k = 0.3536 0.6894 0.0177 (   148 PWs)   bands (ev):

    -1.4706  -1.4706  -1.1497  -1.1497   2.0334   2.0334   2.2919   2.2919
    10.0126  10.0126  10.2632  10.2632  11.0663  11.0663  11.3255  11.3255

          k = 0.3536 0.6718 0.0354 (   148 PWs)   bands (ev):

    -1.6342  -1.6342  -1.0004  -1.0004   1.9416   1.9416   2.4499   2.4499
     9.8562   9.8562  10.2690  10.2690  11.0853  11.0853  11.5248  11.5248

          k = 0.3536 0.6541 0.0530 (   148 PWs)   bands (ev):

    -1.7958  -1.7958  -0.8656  -0.8656   1.8824   1.8824   2.6220   2.6220
     9.7026   9.7026  10.1822  10.1822  11.2194  11.2194  11.7445  11.7445

          k = 0.3536 0.6364 0.0707 (   148 PWs)   bands (ev):

    -1.9533  -1.9533  -0.7510  -0.7510   1.8621   1.8621   2.8050   2.8050
     9.5582   9.5582  10.0493  10.0493  11.4219  11.4219  11.9779  11.9779

          k = 0.3536 0.6187 0.0884 (   150 PWs)   bands (ev):

    -2.1053  -2.1053  -0.6640  -0.6640   1.8858   1.8858   2.9961   2.9961
     9.4266   9.4266   9.8881   9.8881  11.6616  11.6616  12.2210  12.2210

          k = 0.3536 0.6010 0.1061 (   148 PWs)   bands (ev):

    -2.2494  -2.2494  -0.6033  -0.6033   1.9566   1.9566   3.1935   3.1935
     9.3120   9.3120   9.7367   9.7367  11.9292  11.9292  12.4747  12.4747

          k = 0.3536 0.5834 0.1237 (   146 PWs)   bands (ev):

    -2.3862  -2.3862  -0.5698  -0.5698   2.0746   2.0746   3.3938   3.3938
     9.2195   9.2195   9.5866   9.5866  12.2126  12.2126  12.7316  12.7316

          k = 0.3536 0.5657 0.1414 (   146 PWs)   bands (ev):

    -2.5152  -2.5152  -0.5623  -0.5623   2.2349   2.2349   3.5940   3.5940
     9.1380   9.1380   9.4409   9.4409  12.5063  12.5063  12.9859  12.9859

          k = 0.3536 0.5480 0.1591 (   146 PWs)   bands (ev):

    -2.6353  -2.6353  -0.5742  -0.5742   2.4323   2.4323   3.7919   3.7919
     9.0764   9.0764   9.2996   9.2996  12.5729  12.5729  12.8470  12.8470

          k = 0.3536 0.5303 0.1768 (   148 PWs)   bands (ev):

    -2.7463  -2.7463  -0.6002  -0.6002   2.6595   2.6595   3.9842   3.9842
     9.0336   9.0336   9.1616   9.1616  12.0989  12.0989  13.1470  13.1470

          k = 0.3536 0.5127 0.1945 (   148 PWs)   bands (ev):

    -2.8471  -2.8471  -0.6341  -0.6341   2.9121   2.9121   4.1680   4.1680
     9.0154   9.0154   9.0257   9.0257  11.6319  11.6319  13.4834  13.4834

          k = 0.3536 0.4950 0.2121 (   146 PWs)   bands (ev):

    -2.9371  -2.9371  -0.6720  -0.6720   3.1852   3.1852   4.3403   4.3403
     8.8884   8.8884   9.0205   9.0205  11.1884  11.1884  13.8078  13.8078

          k = 0.3536 0.4773 0.2298 (   150 PWs)   bands (ev):

    -3.0202  -3.0202  -0.7111  -0.7111   3.4681   3.4681   4.4971   4.4971
     8.7444   8.7444   9.0429   9.0429  10.7718  10.7718  13.8424  13.8424

          k = 0.3536 0.4596 0.2475 (   150 PWs)   bands (ev):

    -3.0905  -3.0905  -0.7486  -0.7486   3.7605   3.7605   4.6374   4.6374
     8.5891   8.5891   9.0898   9.0898  10.4038  10.4038  13.7646  13.7646

          k = 0.3536 0.4419 0.2652 (   148 PWs)   bands (ev):

    -3.1495  -3.1495  -0.7826  -0.7826   4.0548   4.0548   4.7593   4.7593
     8.4163   8.4163   9.1542   9.1542  10.0899  10.0899  13.5999  13.5999

          k = 0.3536 0.4243 0.2828 (   148 PWs)   bands (ev):

    -3.1986  -3.1986  -0.8121  -0.8121   4.3402   4.3402   4.8592   4.8592
     8.2246   8.2246   9.2286   9.2286   9.8389   9.8389  13.3970  13.3970

          k = 0.3536 0.4066 0.3005 (   148 PWs)   bands (ev):

    -3.2368  -3.2368  -0.8358  -0.8358   4.6044   4.6044   4.9373   4.9373
     8.0240   8.0240   9.3052   9.3052   9.6538   9.6538  13.1985  13.1985

          k = 0.3536 0.3889 0.3182 (   154 PWs)   bands (ev):

    -3.2642  -3.2642  -0.8563  -0.8563   4.8260   4.8260   4.9930   4.9930
     7.7977   7.7977   9.3712   9.3712   9.5282   9.5282  13.0336  13.0336

          k = 0.3536 0.3712 0.3359 (   156 PWs)   bands (ev):

    -3.2807  -3.2807  -0.8679  -0.8679   4.9810   4.9810   5.0264   5.0264
     7.6488   7.6488   9.4178   9.4178   9.4574   9.4574  12.9255  12.9255

          k = 0.3536 0.3536 0.3536 (   156 PWs)   bands (ev):

    -3.2862  -3.2862  -0.8715  -0.8715   5.0376   5.0376   5.0376   5.0376
     7.5974   7.5974   9.4348   9.4348   9.4348   9.4348  12.8878  12.8878

          k = 0.3359 0.3359 0.3359 (   147 PWs)   bands (ev):

    -3.3253  -3.3253  -0.8121  -0.8121   5.0422   5.0422   5.0422   5.0422
     7.6650   7.6650   9.4432   9.4432   9.4432   9.4432  12.8990  12.8990

          k = 0.3182 0.3182 0.3182 (   147 PWs)   bands (ev):

    -3.4337  -3.4337  -0.6570  -0.6570   5.0557   5.0557   5.0557   5.0557
     7.6769   7.6769   9.4611   9.4611   9.4611   9.4611  12.9282  12.9282

          k = 0.3005 0.3005 0.3005 (   147 PWs)   bands (ev):

    -3.5898  -3.5898  -0.4227  -0.4227   5.0783   5.0783   5.0783   5.0783
     7.6991   7.6991   9.4896   9.4896   9.4896   9.4896  12.9759  12.9759

          k = 0.2828 0.2828 0.2828 (   147 PWs)   bands (ev):

    -3.7731  -3.7731  -0.1302  -0.1302   5.1099   5.1099   5.1099   5.1099
     7.7316   7.7316   9.5269   9.5269   9.5269   9.5269  13.0398  13.0398

          k = 0.2652 0.2652 0.2652 (   147 PWs)   bands (ev):

    -3.9685  -3.9685   0.2053   0.2053   5.1505   5.1505   5.1505   5.1505
     7.7743   7.7743   9.5701   9.5701   9.5701   9.5701  13.1161  13.1161

          k = 0.2475 0.2475 0.2475 (   147 PWs)   bands (ev):

    -4.1663  -4.1663   0.5737   0.5737   5.2000   5.2000   5.2000   5.2000
     7.8270   7.8270   9.6149   9.6149   9.6149   9.6149  13.1965  13.1965

          k = 0.2298 0.2298 0.2298 (   150 PWs)   bands (ev):

    -4.3611  -4.3611   0.9679   0.9679   5.2550   5.2550   5.2550   5.2550
     7.8897   7.8897   9.6550   9.6550   9.6550   9.6550  13.2626  13.2626

          k = 0.2121 0.2121 0.2121 (   150 PWs)   bands (ev):

    -4.5472  -4.5472   1.3839   1.3839   5.3214   5.3214   5.3214   5.3214
     7.9617   7.9617   9.6849   9.6849   9.6849   9.6849  13.2701  13.2701

          k = 0.1945 0.1945 0.1945 (   150 PWs)   bands (ev):

    -4.7228  -4.7228   1.8181   1.8181   5.3959   5.3959   5.3959   5.3959
     8.0429   8.0429   9.6960   9.6960   9.6960   9.6960  13.1476  13.1476

          k = 0.1768 0.1768 0.1768 (   150 PWs)   bands (ev):

    -4.8863  -4.8863   2.2676   2.2676   5.4782   5.4782   5.4782   5.4782
     8.1325   8.1325   9.6808   9.6808   9.6808   9.6808  12.8798  12.8798

          k = 0.1591 0.1591 0.1591 (   150 PWs)   bands (ev):

    -5.0362  -5.0362   2.7299   2.7299   5.5672   5.5672   5.5672   5.5672
     8.2295   8.2295   9.6337   9.6337   9.6337   9.6337  12.5298  12.5298

          k = 0.1414 0.1414 0.1414 (   150 PWs)   bands (ev):

    -5.1719  -5.1719   3.2020   3.2020   5.6620   5.6620   5.6620   5.6620
     8.3321   8.3321   9.5539   9.5539   9.5539   9.5539  12.1444  12.1444

          k = 0.1237 0.1237 0.1237 (   153 PWs)   bands (ev):

    -5.2929  -5.2929   3.6773   3.6773   5.7607   5.7607   5.7607   5.7607
     8.4309   8.4309   9.4452   9.4452   9.4452   9.4452  11.7343  11.7343

          k = 0.1061 0.1061 0.1061 (   153 PWs)   bands (ev):

    -5.3983  -5.3983   4.1574   4.1574   5.8614   5.8614   5.8614   5.8614
     8.5361   8.5361   9.3164   9.3164   9.3164   9.3164  11.3262  11.3262

          k = 0.0884 0.0884 0.0884 (   153 PWs)   bands (ev):

    -5.4879  -5.4879   4.6331   4.6331   5.9608   5.9608   5.9608   5.9608
     8.6352   8.6352   9.1784   9.1784   9.1784   9.1784  10.9205  10.9205

          k = 0.0707 0.0707 0.0707 (   153 PWs)   bands (ev):

    -5.5616  -5.5616   5.0946   5.0946   6.0549   6.0549   6.0549   6.0549
     8.7194   8.7194   9.0427   9.0427   9.0427   9.0427  10.5295  10.5295

          k = 0.0530 0.0530 0.0530 (   153 PWs)   bands (ev):

    -5.6189  -5.6189   5.5255   5.5255   6.1384   6.1384   6.1384   6.1384
     8.7757   8.7757   8.9209   8.9209   8.9209   8.9209  10.1755  10.1755

          k = 0.0354 0.0354 0.0354 (   153 PWs)   bands (ev):

    -5.6600  -5.6600   5.8975   5.8975   6.2050   6.2050   6.2050   6.2050
     8.7887   8.7887   8.8239   8.8239   8.8239   8.8239   9.8941   9.8941

          k = 0.0177 0.0177 0.0177 (   153 PWs)   bands (ev):

    -5.6846  -5.6846   6.1636   6.1636   6.2484   6.2484   6.2484   6.2484
     8.7612   8.7612   8.7613   8.7613   8.7613   8.7613   9.7225   9.7225

          k = 0.0000 0.0000 0.0000 (   169 PWs)   bands (ev):

    -5.6941  -5.6941   6.2580   6.2580   6.2580   6.2580   6.2580   6.2580
     8.7339   8.7339   8.7339   8.7339   8.7339   8.7339   9.6378   9.6378

          k = 0.0000 0.0354 0.0000 (   153 PWs)   bands (ev):

    -5.6818  -5.6818   6.1921   6.1921   6.2130   6.2130   6.2130   6.2130
     8.7027   8.7027   8.8037   8.8037   8.8037   8.8037   9.7367   9.7367

          k = 0.0000 0.0707 0.0000 (   153 PWs)   bands (ev):

    -5.6489  -5.6489   5.9940   5.9940   6.0750   6.0750   6.0750   6.0750
     8.5984   8.5984   8.9818   8.9818   8.9818   8.9818   9.9240   9.9240

          k = 0.0000 0.1061 0.0000 (   153 PWs)   bands (ev):

    -5.5941  -5.5941   5.7042   5.7042   5.8788   5.8788   5.8788   5.8788
     8.4421   8.4421   9.2448   9.2448   9.2448   9.2448  10.1809  10.1809

          k = 0.0000 0.1414 0.0000 (   153 PWs)   bands (ev):

    -5.5173  -5.5173   5.3550   5.3550   5.6513   5.6513   5.6513   5.6513
     8.2514   8.2514   9.5655   9.5655   9.5655   9.5655  10.4370  10.4370

          k = 0.0000 0.1768 0.0000 (   153 PWs)   bands (ev):

    -5.4188  -5.4188   4.9689   4.9689   5.4106   5.4106   5.4106   5.4106
     8.0419   8.0419   9.9249   9.9249   9.9249   9.9249  10.5853  10.5853

          k = 0.0000 0.2121 0.0000 (   153 PWs)   bands (ev):

    -5.2985  -5.2985   4.5597   4.5597   5.1682   5.1682   5.1682   5.1682
     7.8254   7.8254  10.3113  10.3113  10.3113  10.3113  10.5071  10.5071

          k = 0.0000 0.2475 0.0000 (   153 PWs)   bands (ev):

    -5.1567  -5.1567   4.1358   4.1358   4.9311   4.9311   4.9311   4.9311
     7.6109   7.6109  10.2162  10.2162  10.7169  10.7169  10.7169  10.7169

          k = 0.0000 0.2828 0.0000 (   149 PWs)   bands (ev):

    -4.9931  -4.9931   3.7028   3.7028   4.7065   4.7065   4.7065   4.7065
     7.4107   7.4107   9.8237   9.8237  11.1428  11.1428  11.1428  11.1428

          k = 0.0000 0.3182 0.0000 (   149 PWs)   bands (ev):

    -4.8089  -4.8089   3.2623   3.2623   4.4915   4.4915   4.4915   4.4915
     7.2171   7.2171   9.4031   9.4031  11.5732  11.5732  11.5732  11.5732

          k = 0.0000 0.3536 0.0000 (   149 PWs)   bands (ev):

    -4.6039  -4.6039   2.8175   2.8175   4.2915   4.2915   4.2915   4.2915
     7.0395   7.0395   8.9879   8.9879  12.0121  12.0121  12.0121  12.0121

          k = 0.0000 0.3889 0.0000 (   149 PWs)   bands (ev):

    -4.3783  -4.3783   2.3700   2.3700   4.1078   4.1078   4.1078   4.1078
     6.8805   6.8805   8.5935   8.5935  12.4578  12.4578  12.4578  12.4578

          k = 0.0000 0.4243 0.0000 (   149 PWs)   bands (ev):

    -4.1324  -4.1324   1.9215   1.9215   3.9415   3.9415   3.9415   3.9415
     6.7419   6.7419   8.2275   8.2275  12.9095  12.9095  12.9095  12.9095

          k = 0.0000 0.4596 0.0000 (   149 PWs)   bands (ev):

    -3.8668  -3.8668   1.4736   1.4736   3.7934   3.7934   3.7934   3.7934
     6.6254   6.6254   7.8939   7.8939  13.3665  13.3665  13.3665  13.3665

          k = 0.0000 0.4950 0.0000 (   145 PWs)   bands (ev):

    -3.5807  -3.5807   1.0305   1.0305   3.6647   3.6647   3.6647   3.6647
     6.5339   6.5339   7.5989   7.5989  13.8327  13.8327  13.8327  13.8327

          k = 0.0000 0.5303 0.0000 (   145 PWs)   bands (ev):

    -3.2772  -3.2772   0.5882   0.5882   3.5545   3.5545   3.5545   3.5545
     6.4651   6.4651   7.3343   7.3343  14.2986  14.2986  14.2986  14.2986

          k = 0.0000 0.5657 0.0000 (   146 PWs)   bands (ev):

    -2.9557  -2.9557   0.1515   0.1515   3.4639   3.4639   3.4639   3.4639
     6.4220   6.4220   7.0977   7.0977  14.7674  14.7674  14.7674  14.7674

          k = 0.0000 0.6010 0.0000 (   142 PWs)   bands (ev):

    -2.6169  -2.6169  -0.2769  -0.2769   3.3933   3.3933   3.3933   3.3933
     6.4056   6.4056   6.9217   6.9217  15.2461  15.2461  15.2461  15.2461

          k = 0.0000 0.6364 0.0000 (   150 PWs)   bands (ev):

    -2.2638  -2.2638  -0.6997  -0.6997   3.3412   3.3412   3.3412   3.3412
     6.4064   6.4064   6.7463   6.7463  15.6859  15.6859  15.6859  15.6859

          k = 0.0000 0.6718 0.0000 (   150 PWs)   bands (ev):

    -1.8932  -1.8932  -1.1099  -1.1099   3.3108   3.3108   3.3108   3.3108
     6.4458   6.4458   6.6148   6.6148  16.0936  16.0936  16.0936  16.0936

          k = 0.0000 0.7071 0.0000 (   150 PWs)   bands (ev):

    -1.5082  -1.5082  -1.5082  -1.5082   3.3006   3.3006   3.3006   3.3006
     6.5150   6.5150   6.5150   6.5150  16.2965  16.2965  16.2965  16.2965

          k = 0.7071 0.7071 0.0000 (   150 PWs)   bands (ev):

    -1.5082  -1.5082  -1.5082  -1.5082   3.3006   3.3006   3.3006   3.3006
     6.5150   6.5150   6.5150   6.5150  16.2965  16.2965  16.2965  16.2965

          k = 0.6983 0.6983 0.0000 (   150 PWs)   bands (ev):

    -1.5086  -1.5086  -1.5068  -1.5068   3.2893   3.2893   3.3018   3.3018
     6.5163   6.5163   6.5307   6.5307  16.2822  16.2822  16.2872  16.2872

          k = 0.6894 0.6894 0.0000 (   150 PWs)   bands (ev):

    -1.5097  -1.5097  -1.5023  -1.5023   3.2561   3.2561   3.3052   3.3052
     6.5204   6.5204   6.5771   6.5771  16.2401  16.2401  16.2597  16.2597

          k = 0.6806 0.6806 0.0000 (   150 PWs)   bands (ev):

    -1.5116  -1.5116  -1.4950  -1.4950   3.2030   3.2030   3.3109   3.3109
     6.5271   6.5271   6.6522   6.6522  16.1728  16.1728  16.2151  16.2151

          k = 0.6718 0.6718 0.0000 (   150 PWs)   bands (ev):

    -1.5144  -1.5144  -1.4847  -1.4847   3.1328   3.1328   3.3189   3.3189
     6.5365   6.5365   6.7533   6.7533  16.0838  16.0838  16.1550  16.1550

          k = 0.6629 0.6629 0.0000 (   150 PWs)   bands (ev):

    -1.5182  -1.5182  -1.4715  -1.4715   3.0487   3.0487   3.3291   3.3291
     6.5485   6.5485   6.8773   6.8773  15.9772  15.9772  16.0814  16.0814

          k = 0.6541 0.6541 0.0000 (   150 PWs)   bands (ev):

    -1.5232  -1.5232  -1.4554  -1.4554   2.9541   2.9541   3.3416   3.3416
     6.5633   6.5633   7.0211   7.0211  15.8563  15.8563  15.9963  15.9963

          k = 0.6452 0.6452 0.0000 (   148 PWs)   bands (ev):

    -1.5288  -1.5288  -1.4363  -1.4363   2.8520   2.8520   3.3563   3.3563
     6.5807   6.5807   7.1831   7.1831  15.7282  15.7282  15.9016  15.9016

          k = 0.6364 0.6364 0.0000 (   148 PWs)   bands (ev):

    -1.5368  -1.5368  -1.4142  -1.4142   2.7450   2.7450   3.3733   3.3733
     6.6007   6.6007   7.3583   7.3583  15.5885  15.5885  15.7990  15.7990

          k = 0.6276 0.6276 0.0000 (   148 PWs)   bands (ev):

    -1.5468  -1.5468  -1.3893  -1.3893   2.6354   2.6354   3.3925   3.3925
     6.6234   6.6234   7.5458   7.5458  15.4423  15.4423  15.6899  15.6899

          k = 0.6187 0.6187 0.0000 (   148 PWs)   bands (ev):

    -1.5589  -1.5589  -1.3614  -1.3614   2.5252   2.5252   3.4139   3.4139
     6.6487   6.6487   7.7440   7.7440  15.2914  15.2914  15.5756  15.5756

          k = 0.6099 0.6099 0.0000 (   142 PWs)   bands (ev):

    -1.5733  -1.5733  -1.3275  -1.3275   2.4169   2.4169   3.4376   3.4376
     6.6880   6.6880   7.9523   7.9523  15.1396  15.1396  15.4657  15.4657

          k = 0.6010 0.6010 0.0000 (   142 PWs)   bands (ev):

    -1.5909  -1.5909  -1.2939  -1.2939   2.3105   2.3105   3.4634   3.4634
     6.7184   6.7184   8.1678   8.1678  14.9826  14.9826  15.3443  15.3443

          k = 0.5922 0.5922 0.0000 (   142 PWs)   bands (ev):

    -1.6117  -1.6117  -1.2573  -1.2573   2.2080   2.2080   3.4913   3.4913
     6.7514   6.7514   8.3904   8.3904  14.8241  14.8241  15.2204  15.2204

          k = 0.5834 0.5834 0.0000 (   146 PWs)   bands (ev):

    -1.6367  -1.6367  -1.2212  -1.2212   2.1101   2.1101   3.5211   3.5211
     6.7816   6.7816   8.6187   8.6187  14.6646  14.6646  15.0844  15.0844

          k = 0.5745 0.5745 0.0000 (   146 PWs)   bands (ev):

    -1.6653  -1.6653  -1.1789  -1.1789   2.0186   2.0186   3.5532   3.5532
     6.8196   6.8196   8.8530   8.8530  14.5049  14.5049  14.9571  14.9571

          k = 0.5657 0.5657 0.0000 (   146 PWs)   bands (ev):

    -1.6982  -1.6982  -1.1337  -1.1337   1.9340   1.9340   3.5874   3.5874
     6.8601   6.8601   9.0923   9.0923  14.3452  14.3452  14.8289  14.8289

          k = 0.5568 0.5568 0.0000 (   146 PWs)   bands (ev):

    -1.7359  -1.7359  -1.0856  -1.0856   1.8569   1.8569   3.6237   3.6237
     6.9032   6.9032   9.3359   9.3359  14.1860  14.1860  14.7003  14.7004

          k = 0.5480 0.5480 0.0000 (   146 PWs)   bands (ev):

    -1.7784  -1.7784  -1.0346  -1.0346   1.7880   1.7880   3.6619   3.6619
     6.9487   6.9487   9.5833   9.5833  14.0275  14.0275  14.4748  14.5717

          k = 0.5392 0.5392 0.0000 (   142 PWs)   bands (ev):

    -1.8240  -1.8240  -0.9804  -0.9804   1.7277   1.7277   3.7037   3.7037
     6.9966   6.9966   9.8438   9.8438  13.8706  13.8706  14.3113  14.3113

          k = 0.5303 0.5303 0.0000 (   138 PWs)   bands (ev):

    -1.8755  -1.8755  -0.9219  -0.9219   1.6764   1.6764   3.7469   3.7469
     7.0487   7.0487  10.0969  10.0969  13.7144  13.7144  14.1685  14.1685

          k = 0.5127 0.5127 0.0000 (   142 PWs)   bands (ev):

    -1.9971  -1.9971  -0.8035  -0.8035   1.6009   1.6009   3.8365   3.8365
     7.1547   7.1547  10.6069  10.6069  13.3983  13.3983  13.8369  13.8369

          k = 0.4950 0.4950 0.0000 (   142 PWs)   bands (ev):

    -2.1382  -2.1382  -0.6699  -0.6699   1.5621   1.5621   3.9336   3.9336
     7.2714   7.2714  11.1152  11.1152  13.0968  13.0968  13.5478  13.5478

          k = 0.4773 0.4773 0.0000 (   142 PWs)   bands (ev):

    -2.2966  -2.2966  -0.5248  -0.5248   1.5584   1.5584   4.0374   4.0374
     7.3966   7.3966  11.5986  11.5986  12.8029  12.8029  13.3045  13.3045

          k = 0.4596 0.4596 0.0000 (   142 PWs)   bands (ev):

    -2.4690  -2.4690  -0.3683  -0.3683   1.5872   1.5872   4.1474   4.1474
     7.5300   7.5300  11.9874  11.9874  12.5173  12.5173  13.1745  13.1745

          k = 0.4419 0.4419 0.0000 (   142 PWs)   bands (ev):

    -2.6519  -2.6519  -0.2005  -0.2005   1.6455   1.6455   4.2629   4.2629
     7.6706   7.6706  12.1274  12.1274  12.2405  12.2405  13.1104  13.1104

          k = 0.4243 0.4243 0.0000 (   142 PWs)   bands (ev):

    -2.8417  -2.8417  -0.0206  -0.0206   1.7302   1.7302   4.3833   4.3833
     7.8204   7.8204  11.9729  11.9729  12.0120  12.0120  12.8932  12.8932

          k = 0.4066 0.4066 0.0000 (   146 PWs)   bands (ev):

    -3.0377  -3.0377   0.1693   0.1693   1.8363   1.8363   4.5060   4.5060
     7.9724   7.9724  11.7063  11.7063  11.8124  11.8124  12.6825  12.6825

          k = 0.3889 0.3889 0.0000 (   146 PWs)   bands (ev):

    -3.2329  -3.2329   0.3704   0.3704   1.9650   1.9650   4.6334   4.6334
     8.1286   8.1286  11.4585  11.4585  11.5891  11.5891  12.4878  12.4878

          k = 0.3712 0.3712 0.0000 (   144 PWs)   bands (ev):

    -3.4265  -3.4265   0.5831   0.5831   2.1122   2.1122   4.7632   4.7632
     8.2872   8.2872  11.2216  11.2216  11.3797  11.3797  12.3049  12.3049

          k = 0.3536 0.3536 0.0000 (   144 PWs)   bands (ev):

    -3.6179  -3.6179   0.8058   0.8058   2.2762   2.2762   4.8938   4.8938
     8.4451   8.4451  10.9941  10.9941  11.1549  11.1549  12.1393  12.1393

          k = 0.3359 0.3359 0.0000 (   144 PWs)   bands (ev):

    -3.8049  -3.8049   1.0393   1.0393   2.4551   2.4551   5.0242   5.0242
     8.6001   8.6001  10.7771  10.7771  10.9375  10.9375  11.9919  11.9919

          k = 0.3182 0.3182 0.0000 (   144 PWs)   bands (ev):

    -3.9863  -3.9863   1.2834   1.2834   2.6476   2.6476   5.1531   5.1531
     8.7487   8.7487  10.5707  10.5707  10.7289  10.7289  11.8654  11.8654

          k = 0.3005 0.3005 0.0000 (   144 PWs)   bands (ev):

    -4.1611  -4.1611   1.5379   1.5379   2.8523   2.8523   5.2791   5.2791
     8.8867   8.8867  10.3750  10.3750  10.5300  10.5300  11.7626  11.7626

          k = 0.2828 0.2828 0.0000 (   144 PWs)   bands (ev):

    -4.3286  -4.3286   1.8027   1.8027   3.0678   3.0678   5.4009   5.4009
     9.0095   9.0095  10.1901  10.1901  10.3411  10.3411  11.6861  11.6861

          k = 0.2652 0.2652 0.0000 (   144 PWs)   bands (ev):

    -4.4879  -4.4879   2.0775   2.0775   3.2931   3.2931   5.5170   5.5170
     9.1124   9.1124  10.0160  10.0160  10.1626  10.1626  11.6378  11.6378

          k = 0.2475 0.2475 0.0000 (   146 PWs)   bands (ev):

    -4.6390  -4.6390   2.3596   2.3596   3.5267   3.5267   5.6263   5.6263
     9.1916   9.1916   9.8529   9.8529   9.9902   9.9902  11.6167  11.6167

          k = 0.2298 0.2298 0.0000 (   146 PWs)   bands (ev):

    -4.7807  -4.7807   2.6531   2.6531   3.7674   3.7674   5.7277   5.7277
     9.2456   9.2456   9.7008   9.7008   9.8325   9.8325  11.6188  11.6188

          k = 0.2121 0.2121 0.0000 (   145 PWs)   bands (ev):

    -4.9129  -4.9129   2.9553   2.9553   4.0139   4.0139   5.8202   5.8202
     9.2748   9.2748   9.5599   9.5599   9.6906   9.6906  11.6330  11.6330

          k = 0.1945 0.1945 0.0000 (   145 PWs)   bands (ev):

    -5.0355  -5.0355   3.2656   3.2656   4.2641   4.2641   5.9032   5.9032
     9.2822   9.2822   9.4300   9.4300   9.5535   9.5535  11.6415  11.6415

          k = 0.1768 0.1768 0.0000 (   145 PWs)   bands (ev):

    -5.1481  -5.1481   3.5832   3.5832   4.5161   4.5161   5.9766   5.9766
     9.2719   9.2719   9.3113   9.3113   9.4267   9.4267  11.6187  11.6187

          k = 0.1679 0.1679 0.0000 (   149 PWs)   bands (ev):

    -5.2010  -5.2010   3.7410   3.7410   4.6410   4.6410   6.0090   6.0090
     9.2560   9.2560   9.2609   9.2609   9.3506   9.3506  11.5854  11.5854

          k = 0.1591 0.1591 0.0000 (   149 PWs)   bands (ev):

    -5.2509  -5.2509   3.9033   3.9033   4.7663   4.7663   6.0396   6.0396
     9.2037   9.2037   9.2476   9.2476   9.2936   9.2936  11.5346  11.5346

          k = 0.1503 0.1503 0.0000 (   149 PWs)   bands (ev):

    -5.2983  -5.2983   4.0668   4.0668   4.8908   4.8908   6.0678   6.0678
     9.1542   9.1542   9.2319   9.2319   9.2392   9.2392  11.4638  11.4638

          k = 0.1414 0.1414 0.0000 (   149 PWs)   bands (ev):

    -5.3430  -5.3430   4.2312   4.2312   5.0139   5.0139   6.0938   6.0938
     9.1075   9.1075   9.1873   9.1873   9.2142   9.2142  11.3727  11.3727

          k = 0.1326 0.1326 0.0000 (   149 PWs)   bands (ev):

    -5.3851  -5.3851   4.3961   4.3961   5.1352   5.1352   6.1175   6.1175
     9.0636   9.0636   9.1380   9.1380   9.1947   9.1947  11.2630  11.2630

          k = 0.1237 0.1237 0.0000 (   149 PWs)   bands (ev):

    -5.4245  -5.4245   4.5613   4.5613   5.2542   5.2542   6.1391   6.1391
     9.0225   9.0225   9.0912   9.0912   9.1735   9.1735  11.1373  11.1373

          k = 0.1149 0.1149 0.0000 (   149 PWs)   bands (ev):

    -5.4613  -5.4613   4.7262   4.7262   5.3704   5.3704   6.1587   6.1587
     8.9843   8.9843   9.0469   9.0469   9.1509   9.1509  10.9994  10.9994

          k = 0.1061 0.1061 0.0000 (   157 PWs)   bands (ev):

    -5.4963  -5.4963   4.8881   4.8881   5.4799   5.4799   6.1685   6.1685
     8.9393   8.9393   9.0052   9.0052   9.1237   9.1237  10.8403  10.8403

          k = 0.0972 0.0972 0.0000 (   157 PWs)   bands (ev):

    -5.5276  -5.5276   5.0508   5.0508   5.5883   5.5883   6.1842   6.1842
     8.9066   8.9066   8.9660   8.9660   9.0980   9.0980  10.6886  10.6886

          k = 0.0884 0.0884 0.0000 (   157 PWs)   bands (ev):

    -5.5563  -5.5563   5.2113   5.2113   5.6918   5.6918   6.1981   6.1981
     8.8769   8.8769   8.9295   8.9295   9.0704   9.0704  10.5361  10.5361

          k = 0.0795 0.0795 0.0000 (   157 PWs)   bands (ev):

    -5.5823  -5.5823   5.3683   5.3683   5.7895   5.7895   6.2103   6.2103
     8.8499   8.8499   8.8957   8.8957   9.0403   9.0403  10.3867  10.3867

          k = 0.0707 0.0707 0.0000 (   157 PWs)   bands (ev):

    -5.6056  -5.6056   5.5207   5.5207   5.8806   5.8806   6.2210   6.2210
     8.8258   8.8258   8.8648   8.8648   9.0073   9.0073  10.2439  10.2439

          k = 0.0619 0.0619 0.0000 (   157 PWs)   bands (ev):

    -5.6261  -5.6261   5.6666   5.6666   5.9641   5.9641   6.2302   6.2302
     8.8045   8.8045   8.8368   8.8368   8.9708   8.9708  10.1113  10.1113

          k = 0.0530 0.0530 0.0000 (   157 PWs)   bands (ev):

    -5.6439  -5.6439   5.8039   5.8039   6.0392   6.0392   6.2381   6.2381
     8.7861   8.7861   8.8119   8.8119   8.9310   8.9310   9.9922   9.9922

          k = 0.0442 0.0442 0.0000 (   157 PWs)   bands (ev):

    -5.6590  -5.6590   5.9298   5.9298   6.1047   6.1047   6.2446   6.2446
     8.7705   8.7705   8.7903   8.7903   8.8883   8.8883   9.8895   9.8895

          k = 0.0354 0.0354 0.0000 (   157 PWs)   bands (ev):

    -5.6713  -5.6713   6.0411   6.0411   6.1599   6.1599   6.2498   6.2498
     8.7577   8.7577   8.7723   8.7723   8.8447   8.8447   9.8052   9.8052

          k = 0.0265 0.0265 0.0000 (   157 PWs)   bands (ev):

    -5.6808  -5.6808   6.1340   6.1340   6.2038   6.2038   6.2539   6.2539
     8.7478   8.7478   8.7581   8.7581   8.8035   8.8035   9.7404   9.7404

          k = 0.0177 0.0177 0.0000 (   157 PWs)   bands (ev):

    -5.6877  -5.6877   6.2044   6.2044   6.2357   6.2357   6.2568   6.2568
     8.7407   8.7407   8.7479   8.7479   8.7691   8.7691   9.6950   9.6950

          k = 0.0088 0.0088 0.0000 (   159 PWs)   bands (ev):

    -5.6919  -5.6919   6.2474   6.2474   6.2550   6.2550   6.2585   6.2585
     8.7365   8.7365   8.7405   8.7405   8.7461   8.7461   9.6648   9.6648

          k = 0.0000 0.0000 0.0000 (   169 PWs)   bands (ev):

    -5.6941  -5.6941   6.2580   6.2580   6.2580   6.2580   6.2580   6.2580
     8.7339   8.7339   8.7339   8.7339   8.7339   8.7339   9.6378   9.6378

     Writing all to output data dir /u/51/gutierm2/unix/Software/YAIV/Tutorial/data/qe/tmp/Si.save/ :
     XML data file, pseudopotentials, collected wavefunctions

     init_run     :      0.14s CPU      0.13s WALL (       1 calls)
     electrons    :      2.28s CPU      1.95s WALL (       1 calls)

     Called by init_run:
     wfcinit      :      0.00s CPU      0.00s WALL (       1 calls)
     wfcinit:atom :      0.00s CPU      0.00s WALL (     142 calls)
     wfcinit:wfcr :      0.11s CPU      0.10s WALL (     142 calls)
     potinit      :      0.08s CPU      0.08s WALL (       1 calls)
     hinit0       :      0.06s CPU      0.04s WALL (       1 calls)

     Called by electrons:
     c_bands      :      2.27s CPU      1.94s WALL (       1 calls)
     v_of_rho     :      0.00s CPU      0.00s WALL (       1 calls)
     v_h          :      0.00s CPU      0.00s WALL (       1 calls)
     v_xc         :      0.00s CPU      0.00s WALL (       1 calls)
     newd         :      0.00s CPU      0.00s WALL (       1 calls)
     PAW_pot      :      0.08s CPU      0.08s WALL (       1 calls)

     Called by c_bands:
     init_us_2    :      0.00s CPU      0.00s WALL (     142 calls)
     init_us_2:cp :      0.00s CPU      0.00s WALL (     142 calls)
     cegterg      :      2.11s CPU      1.79s WALL (     167 calls)

     Called by sum_band:

     Called by *egterg:
     cdiaghg      :      0.59s CPU      0.51s WALL (    2639 calls)
     cegterg:over :      0.09s CPU      0.07s WALL (    2497 calls)
     cegterg:upda :      0.06s CPU      0.05s WALL (    2497 calls)
     cegterg:last :      0.12s CPU      0.09s WALL (    1757 calls)
     h_psi        :      1.18s CPU      1.01s WALL (    2806 calls)
     s_psi        :      0.13s CPU      0.11s WALL (    2806 calls)
     g_psi        :      0.01s CPU      0.01s WALL (    2497 calls)

     Called by h_psi:
     h_psi:calbec :      0.06s CPU      0.05s WALL (    2806 calls)
     vloc_psi     :      0.97s CPU      0.84s WALL (    2806 calls)
     add_vuspsi   :      0.12s CPU      0.11s WALL (    2806 calls)

     General routines
     calbec       :      0.06s CPU      0.05s WALL (    2806 calls)
     fft          :      0.02s CPU      0.01s WALL (      15 calls)
     fftw         :      0.74s CPU      0.64s WALL (  120492 calls)
     davcio       :      0.01s CPU      0.01s WALL (     284 calls)

     Parallel routines

     PAW routines
     PAW_pot      :      0.08s CPU      0.08s WALL (       1 calls)

     PWSCF        :      2.52s CPU      2.22s WALL


   This run was terminated on:  14:15:29  29Sep2025            

=------------------------------------------------------------------------------=
   JOB DONE.
=------------------------------------------------------------------------------=
