
     Program MATDYN v.7.3 starts on 30Sep2025 at 13:59:54 

     This program is part of the open-source Quantum ESPRESSO suite
     for quantum simulation of materials; please cite
         "P. Giannozzi et al., J. Phys.:Condens. Matter 21 395502 (2009);
         "P. Giannozzi et al., J. Phys.:Condens. Matter 29 465901 (2017);
         "P. Giannozzi et al., J. Chem. Phys. 152 154105 (2020);
          URL http://www.quantum-espresso.org", 
     in publications or presentations arising from this work. More details at
     http://www.quantum-espresso.org/quote

     Parallel version (MPI), running on     2 processors

     MPI processes distributed on     1 nodes
     R & G space division:  proc/nbgrp/npool/nimage =       2
     658 MiB available memory on the printing compute node when the environment starts

 mass for atomic type   1 not given; uses mass from file Si.fc                                                                                                                                                                                                                                                           
 Norm of the difference between old and new effective charges:    0.00000000000000000000

 Norm of the difference between old and new force-constants:   0.14568555800300334035

     Message from routine matdyn:
     Z* not found in file Si.fc, TO-LO splitting at q=0 will be absent!
     Message from routine matdyn:
     Z* not found in file Si.fc, TO-LO splitting at q=0 will be absent!

     MATDYN       :      0.01s CPU      0.01s WALL


   This run was terminated on:  13:59:54  30Sep2025            

=------------------------------------------------------------------------------=
   JOB DONE.
=------------------------------------------------------------------------------=
