
     Program Q2R v.7.3 starts on 30Sep2025 at 13:59:51 

     This program is part of the open-source Quantum ESPRESSO suite
     for quantum simulation of materials; please cite
         "P. Giannozzi et al., J. Phys.:Condens. Matter 21 395502 (2009);
         "P. Giannozzi et al., J. Phys.:Condens. Matter 29 465901 (2017);
         "P. Giannozzi et al., J. Chem. Phys. 152 154105 (2020);
          URL http://www.quantum-espresso.org", 
     in publications or presentations arising from this work. More details at
     http://www.quantum-espresso.org/quote

     Parallel version (MPI), running on     2 processors

     MPI processes distributed on     1 nodes
     R & G space division:  proc/nbgrp/npool/nimage =       2
     745 MiB available memory on the printing compute node when the environment starts


  reading grid info from file ../results_ph/Si.dyn0    

  reading force constants from file ../results_ph/Si.dyn1
  Dielectric Tensor not found
  nqs=            1
 q=   0.00000000  0.00000000  0.00000000
  reading force constants from file ../results_ph/Si.dyn2
  nqs=            4
 q=  -0.35355339 -0.35355339  0.35355339
 q=   0.35355339 -0.35355339 -0.35355339
 q=  -0.35355339  0.35355339 -0.35355339
 q=   0.35355339  0.35355339  0.35355339
  reading force constants from file ../results_ph/Si.dyn3
  nqs=            3
 q=  -0.70710678  0.00000000  0.00000000
 q=   0.00000000  0.00000000 -0.70710678
 q=   0.00000000 -0.70710678  0.00000000

      q-space grid ok, #points =    8

      fft-check success (sum of imaginary terms < 10^-12)

     Q2R          :      0.02s CPU      0.02s WALL


   This run was terminated on:  13:59:51  30Sep2025            

=------------------------------------------------------------------------------=
   JOB DONE.
=------------------------------------------------------------------------------=
